<?xml version="1.0" encoding="UTF-8" ?>
<psml version="1.1" energy_unit="hartree" length_unit="bohr"
 uuid="fb074a50-7301-11e7-48f8-3d3a5f3b0c3a"
 xmlns="http://esl.cecam.org/PSML/ns/1.1">
<provenance creator="ONCVPSP-3.3.0+psml-3.3.0-73 (scalar-relativistic)"
 date="2017-07-27">
<annotation action="semilocal-pseudopotential-generation"
 action-cont="projectors-generation" />
<input-file name="oncvpsp-input">
<![CDATA[# ATOM AND REFERENCE CONFIGURATION
# atsym, z, nc, nv, iexc   psfile
    Hg  80.0  12   2   3   both
#
# n, l, f  (nc+nv lines)
    1    0    2.0
    2    0    2.0
    2    1    6.0
    3    0    2.0
    3    1    6.0
    3    2   10.0
    4    0    2.0
    4    1    6.0
    4    2   10.0
    4    3   14.0
    5    0    2.0
    5    1    6.0
    5    2   10.0
    6    0    2.0
#
# PSEUDOPOTENTIAL AND OPTIMIZATION
# lmax
    3
#
# l, rc, ep, ncon, nbas, qcut  (lmax+1 lines, l's must be in order)
    0    3.20    0.00    4    7    4.00
    1    3.00    0.10    4    7    4.00
    2    2.50    0.00    4    8    6.00
    3    3.00    0.30    4    8    4.50
#
# LOCAL POTENTIAL
# lloc, lpopt, rc(5), dvloc0
    4    3    2.5    0.0
#
# VANDERBILT-KLEINMAN-BYLANDER PROJECTORs
# l, nproj, debl  (lmax+1 lines, l's in order)
    0    2    1.00
    1    2    1.00
    2    2    1.20
    3    2    1.00
#
# MODEL CORE CHARGE
# icmod, fcfact
    0    0.3
#
# LOG DERIVATIVE ANALYSIS
# epsh1, epsh2, depsh
   -2.0  3.0  0.02
#
# OUTPUT GRID
# rlmax, drl
    7.0  0.01
#
# TEST CONFIGURATIONS
# ncnf
    3
#
#   nvcnf (repeated ncnf times)
#   n, l, f  (nvcnf lines, repeated follwing nvcnf's ncnf times)
    2
    5    2   10.0
    6    0    1.0
#
    3
    5    2   10.0
    6    0    1.0
    6    1    1.0
#
    2
    5    2   10.0
    6    1    1.0
]]>
</input-file>
</provenance>
<pseudo-atom-spec atomic-label="Hg" atomic-number="80" z-pseudo="12"
 flavor="Hamann&apos;s oncvpsp" relativity="scalar" spin-dft="no"
 core-corrections="no">
<annotation pseudo-energy="-40.4274898044" />
<exchange-correlation>
<annotation oncvpsp-xc-code="3"
 oncvpsp-xc-type="LDA -- Ceperley-Alder Perdew-Zunger" />
<libxc-info number-of-functionals="2">
<functional name="Slater exchange (LDA)" type="exchange" id="1" />
<functional name="Perdew &amp; Zunger (LDA)" type="correlation" id="9" />
</libxc-info>
</exchange-correlation>
<valence-configuration total-valence-charge="12">
<shell n="5" l="d" occupation="10" />
<shell n="6" l="s" occupation="2" />
</valence-configuration>
</pseudo-atom-spec>
<grid npts="457">
<annotation type="sampled from oncvpsp log grid"
 recipe="r(i:1..N) = r1*exp(a*(i-1)) + r=0; resampled"
 recipe-cont="r1: scale; a: step" scale="0.625000000000E-05"
 step="0.119285708653E-01" delta="0.500000000000E-02" rmax="44.1080184274" />
<grid-data>
  0.000000000000E+00  5.036716794685E-03  1.006044653004E-02  1.509227403831E-02
  2.009495242827E-02  2.520674221625E-02  3.050738058830E-02  3.562473008824E-02
  4.110718453678E-02  4.631512683008E-02  5.156410335150E-02  5.672722906228E-02
  6.240733975628E-02  6.784209610731E-02  7.287563178056E-02  7.828262999150E-02
  8.409079974550E-02  8.925880031034E-02  9.474441267004E-02  1.005671564146E-01
  1.067477507570E-01  1.119646129040E-01  1.174364279700E-01  1.231756557421E-01
  1.291953649286E-01  1.355092629178E-01  1.421317269910E-01  1.473101156723E-01
  1.526771723584E-01  1.582397709279E-01  1.640050357007E-01  1.699803505620E-01
  1.761733684197E-01  1.825920210056E-01  1.892445290339E-01  1.961394127302E-01
  2.032855027437E-01  2.106919514570E-01  2.157788979330E-01  2.209886636447E-01
  2.263242139397E-01  2.317885857611E-01  2.373848893757E-01  2.431163101448E-01
  2.489861103369E-01  2.549976309849E-01  2.611542937874E-01  2.674596030566E-01
  2.739171477128E-01  2.805306033271E-01  2.873037342139E-01  2.942403955727E-01
  3.013445356834E-01  3.086201981530E-01  3.160715242172E-01  3.237027550979E-01
  3.315182344170E-01  3.395224106687E-01  3.477198397519E-01  3.561151875629E-01
  3.647132326514E-01  3.735188689406E-01  3.825371085123E-01  3.917730844602E-01
  4.012320538114E-01  4.109194005186E-01  4.208406385247E-01  4.258907261870E-01
  4.310014149013E-01  4.361734318801E-01  4.414075130626E-01  4.467044032194E-01
  4.520648560580E-01  4.574896343307E-01  4.629795099427E-01  4.685352640620E-01
  4.741576872307E-01  4.798475794775E-01  4.856057504312E-01  4.914330194364E-01
  4.973302156697E-01  5.032981782577E-01  5.093377563968E-01  5.154498094735E-01
  5.216352071872E-01  5.278948296735E-01  5.342295676296E-01  5.406403224411E-01
  5.471280063104E-01  5.536935423861E-01  5.603378648948E-01  5.670619192735E-01
  5.738666623048E-01  5.807530622524E-01  5.877220989995E-01  5.947747641875E-01
  6.019120613577E-01  6.091350060940E-01  6.164446261671E-01  6.238419616811E-01
  6.313280652213E-01  6.389040020040E-01  6.465708500280E-01  6.543297002283E-01
  6.621816566311E-01  6.701278365107E-01  6.781693705488E-01  6.863074029954E-01
  6.945430918313E-01  7.028776089333E-01  7.113121402405E-01  7.198478859234E-01
  7.284860605545E-01  7.372278932811E-01  7.460746280005E-01  7.550275235365E-01
  7.640878538189E-01  7.732569080648E-01  7.825359909615E-01  7.919264228531E-01
  8.014295399273E-01  8.110466944064E-01  8.207792547393E-01  8.306286057962E-01
  8.405961490657E-01  8.506833028545E-01  8.608915024888E-01  8.712222005187E-01
  8.816768669249E-01  8.922569893280E-01  9.029640731999E-01  9.137996420783E-01
  9.247652377832E-01  9.358624206366E-01  9.470927696843E-01  9.584578829205E-01
  9.699593775155E-01  9.815988900457E-01  9.933780767263E-01  1.005298613647E+00
  1.017362197011E+00  1.029570543375E+00  1.041925389895E+00  1.054428494574E+00
  1.067081636509E+00  1.079886616147E+00  1.092845255541E+00  1.105959398607E+00
  1.119230911391E+00  1.132661682327E+00  1.146253622515E+00  1.160008665985E+00
  1.173928769977E+00  1.188015915217E+00  1.202272106200E+00  1.216699371474E+00
  1.231299763932E+00  1.246075361099E+00  1.261028265432E+00  1.276160604617E+00
  1.291474531873E+00  1.306972226255E+00  1.322655892970E+00  1.338527763686E+00
  1.354590096850E+00  1.370845178012E+00  1.387295320148E+00  1.403942863990E+00
  1.420790178358E+00  1.437839660498E+00  1.455093736424E+00  1.472554861261E+00
  1.490225519597E+00  1.508108225832E+00  1.526205524542E+00  1.544519990836E+00
  1.563054230726E+00  1.581810881495E+00  1.600792612073E+00  1.620002123418E+00
  1.639442148899E+00  1.659115454686E+00  1.679024840142E+00  1.699173138224E+00
  1.719563215882E+00  1.740197974473E+00  1.761080350166E+00  1.782213314368E+00
  1.803599874141E+00  1.825243072631E+00  1.847145989502E+00  1.869311741376E+00
  1.891743482273E+00  1.914444404060E+00  1.937417736909E+00  1.960666749752E+00
  1.984194750749E+00  2.008005087758E+00  2.032101148811E+00  2.056486362596E+00
  2.081164198948E+00  2.106138169335E+00  2.131411827367E+00  2.156988769295E+00
  2.182872634527E+00  2.209067106141E+00  2.235575911415E+00  2.262402822352E+00
  2.289551656220E+00  2.317026276095E+00  2.344830591408E+00  2.372968558505E+00
  2.401444181207E+00  2.430261511381E+00  2.459424649518E+00  2.488937745312E+00
  2.518804998256E+00  2.549030658235E+00  2.579619026134E+00  2.610574454447E+00
  2.641901347901E+00  2.673604164076E+00  2.705687414044E+00  2.738155663013E+00
  2.771013530969E+00  2.804265693341E+00  2.837916881661E+00  2.871971884241E+00
  2.906435546852E+00  2.941312773414E+00  2.976608526695E+00  3.012327829015E+00
  3.048475762963E+00  3.085057472119E+00  3.122078161784E+00  3.159543099726E+00
  3.197457616923E+00  3.235827108326E+00  3.274657033625E+00  3.313952918029E+00
  3.353720353045E+00  3.393964997282E+00  3.434692577249E+00  3.475908888176E+00
  3.517619794834E+00  3.559831232372E+00  3.602549207161E+00  3.645779797647E+00
  3.689529155219E+00  3.733803505081E+00  3.778609147142E+00  3.823952456908E+00
  3.869839886391E+00  3.916277965027E+00  3.963273300608E+00  4.010832580215E+00
  4.058962571178E+00  4.107670122032E+00  4.156962163496E+00  4.206845709458E+00
  4.257327857972E+00  4.308415792267E+00  4.360116781774E+00  4.412438183156E+00
  4.465387441354E+00  4.518972090650E+00  4.573199755738E+00  4.628078152807E+00
  4.683615090640E+00  4.739818471728E+00  4.796696293389E+00  4.854256648909E+00
  4.912507728696E+00  4.971457821441E+00  5.031115315298E+00  5.091488699081E+00
  5.152586563470E+00  5.214417602232E+00  5.276990613459E+00  5.340314500820E+00
  5.404398274830E+00  5.469251054128E+00  5.534882066778E+00  5.601300651579E+00
  5.668516259398E+00  5.736538454511E+00  5.805376915965E+00  5.875041438956E+00
  5.945541936224E+00  6.016888439459E+00  6.089091100732E+00  6.162160193941E+00
  6.236106116268E+00  6.310939389663E+00  6.386670662339E+00  6.463310710287E+00
  6.540870438811E+00  6.619360884077E+00  6.698793214686E+00  6.779178733262E+00
  6.860528878061E+00  6.942855224598E+00  7.026169487293E+00  7.110483521140E+00
  7.195809323394E+00  7.282159035275E+00  7.369544943698E+00  7.457979483022E+00
  7.547475236819E+00  7.638044939660E+00  7.729701478936E+00  7.822457896684E+00
  7.916327391444E+00  8.011323320141E+00  8.107459199983E+00  8.204748710383E+00
  8.303205694907E+00  8.402844163246E+00  8.503678293205E+00  8.605722432724E+00
  8.708991101916E+00  8.813498995139E+00  8.919260983081E+00  9.026292114878E+00
  9.134607620256E+00  9.244222911700E+00  9.355153586640E+00  9.467415429680E+00
  9.581024414836E+00  9.695996707814E+00  9.812348668308E+00  9.930096852327E+00
  1.004925801456E+01  1.016984911073E+01  1.029188730006E+01  1.041538994766E+01
  1.054037462703E+01  1.066685912256E+01  1.079486143203E+01  1.092439976921E+01
  1.105549256644E+01  1.118815847724E+01  1.132241637897E+01  1.145828537551E+01
  1.159578480002E+01  1.173493421762E+01  1.187575342823E+01  1.201826246937E+01
  1.216248161900E+01  1.230843139843E+01  1.245613257521E+01  1.260560616611E+01
  1.275687344011E+01  1.290995592139E+01  1.306487539244E+01  1.322165389715E+01
  1.338031374392E+01  1.354087750885E+01  1.370336803895E+01  1.386780845542E+01
  1.403422215689E+01  1.420263282277E+01  1.437306441664E+01  1.454554118964E+01
  1.472008768392E+01  1.489672873612E+01  1.507548948096E+01  1.525639535473E+01
  1.543947209899E+01  1.562474576417E+01  1.581224271334E+01  1.600198962590E+01
  1.619401350141E+01  1.638834166343E+01  1.658500176339E+01  1.678402178455E+01
  1.698543004597E+01  1.718925520652E+01  1.739552626900E+01  1.760427258423E+01
  1.781552385524E+01  1.802931014150E+01  1.824566186320E+01  1.846460980556E+01
  1.868618512322E+01  1.891041934470E+01  1.913734437684E+01  1.936699250936E+01
  1.959939641947E+01  1.983458917651E+01  2.007260424662E+01  2.031347549758E+01
  2.055723720355E+01  2.080392405000E+01  2.105357113860E+01  2.130621399226E+01
  2.156188856017E+01  2.182063122289E+01  2.208247879756E+01  2.234746854313E+01
  2.261563816565E+01  2.288702582364E+01  2.316167013352E+01  2.343961017513E+01
  2.372088549723E+01  2.400553612319E+01  2.429360255667E+01  2.458512578735E+01
  2.488014729680E+01  2.517870906436E+01  2.548085357313E+01  2.578662381601E+01
  2.609606330180E+01  2.640921606143E+01  2.672612665416E+01  2.704684017401E+01
  2.737140225610E+01  2.769985908317E+01  2.803225739217E+01  2.836864448088E+01
  2.870906821465E+01  2.905357703323E+01  2.940221995762E+01  2.975504659712E+01
  3.011210715628E+01  3.047345244216E+01  3.083913387146E+01  3.120920347792E+01
  3.158371391965E+01  3.196271848669E+01  3.234627110853E+01  3.273442636183E+01
  3.312723947817E+01  3.352476635191E+01  3.392706354814E+01  3.433418831071E+01
  3.474619857044E+01  3.516315295329E+01  3.558511078873E+01  3.601213211819E+01
  3.644427770361E+01  3.688160903605E+01  3.732418834449E+01  3.777207860462E+01
  3.822534354788E+01  3.868404767045E+01  3.914825624250E+01  3.961803531741E+01
  4.009345174121E+01  4.057457316211E+01  4.106146804005E+01  4.155420565653E+01
  4.205285612441E+01  4.255749039791E+01  4.306818028268E+01  4.358499844607E+01
  4.410801842743E+01
</grid-data>
</grid>
<valence-charge total-charge="12" is-unscreening-charge="yes"
 rescaled-to-z-pseudo="no">
<radfunc>
<data npts="457">
  1.194577078018E-02  1.194775348619E-02  1.195398624478E-02  1.196540494330E-02
  1.198340140363E-02  1.201082023446E-02  1.205195096732E-02  1.210756701840E-02
  1.218930673708E-02  1.229347906106E-02  1.243058890100E-02  1.260330164122E-02
  1.284498645834E-02  1.313593680229E-02  1.346593899433E-02  1.389484847186E-02
  1.445354317929E-02  1.504723863157E-02  1.578927032349E-02  1.671760410499E-02
  1.787995736429E-02  1.901812864911E-02  2.038171683637E-02  2.201576869375E-02
  2.397425553699E-02  2.632179437580E-02  2.913568334891E-02  3.160707090852E-02
  3.443781449159E-02  3.767977366569E-02  4.139209594462E-02  4.564218686638E-02
  5.050679566450E-02  5.607322692749E-02  6.244068867352E-02  6.972178699119E-02
  7.804417671065E-02  8.755237634450E-02  9.462979511729E-02  1.023599151048E-01
  1.108006851431E-01  1.200148229686E-01  1.300701484070E-01  1.410399303325E-01
  1.530032462604E-01  1.660453530304E-01  1.802580665648E-01  1.957401481358E-01
  2.125976939439E-01  2.309445240848E-01  2.509025661535E-01  2.726022278004E-01
  2.961827514996E-01  3.217925436057E-01  3.495894684653E-01  3.797410968916E-01
  4.124248967168E-01  4.478283513945E-01  4.861489907407E-01  5.275943158868E-01
  5.723815983741E-01  6.207375310771E-01  6.728977063221E-01  7.291058942113E-01
  7.896130918166E-01  8.546763116380E-01  9.245570756116E-01  9.613865508396E-01
  9.995195790959E-01  1.038989241190E+00  1.079828487783E+00  1.122070047784E+00
  1.165746329526E+00  1.210889314421E+00  1.257530442798E+00  1.305700491662E+00
  1.355429444100E+00  1.406746350075E+00  1.459679178384E+00  1.514254659566E+00
  1.570498119572E+00  1.628433304036E+00  1.688082193037E+00  1.749464806253E+00
  1.812598998486E+00  1.877500245560E+00  1.944181420653E+00  2.012652561219E+00
  2.082920626666E+00  2.154989247090E+00  2.228858463411E+00  2.304524459363E+00
  2.381979285878E+00  2.461210578513E+00  2.542201268694E+00  2.624929289646E+00
  2.709367278030E+00  2.795482272427E+00  2.883235409973E+00  2.972581622568E+00
  3.063469334280E+00  3.155840161680E+00  3.249628619065E+00  3.344761830654E+00
  3.441159252038E+00  3.538732403352E+00  3.637384616793E+00  3.737010801309E+00
  3.837497227434E+00  3.938721335446E+00  4.040551570152E+00  4.142847245776E+00
  4.245458444567E+00  4.348225952858E+00  4.450981238399E+00  4.553546472909E+00
  4.655734603775E+00  4.757349478924E+00  4.858186028815E+00  4.958030509488E+00
  5.056660810483E+00  5.153846831300E+00  5.249350929884E+00  5.342928446333E+00
  5.434328304743E+00  5.523293695674E+00  5.609562841313E+00  5.692869844833E+00
  5.772945624895E+00  5.849518935510E+00  5.922317470764E+00  5.991069053042E+00
  6.055502902503E+00  6.115350984564E+00  6.170349431096E+00  6.220240029922E+00
  6.264771776071E+00  6.303702476960E+00  6.336800402514E+00  6.363845969895E+00
  6.384633451282E+00  6.398972691875E+00  6.406690824079E+00  6.407633962635E+00
  6.401668864413E+00  6.388684535577E+00  6.368593767975E+00  6.341334585937E+00
  6.306871584150E+00  6.265197136985E+00  6.216332459610E+00  6.160328501462E+00
  6.097266653132E+00  6.027259248609E+00  5.950449845917E+00  5.867013270779E+00
  5.777155409727E+00  5.681112741352E+00  5.579151596946E+00  5.471567144679E+00
  5.358682094703E+00  5.240845126064E+00  5.118429040074E+00  4.991828648720E+00
  4.861458410794E+00  4.727749832573E+00  4.591148654035E+00  4.452111845645E+00
  4.311104444660E+00  4.168596263507E+00  4.025058506049E+00  3.880960330385E+00
  3.736765399086E+00  3.592928459411E+00  3.449891997027E+00  3.308083006884E+00
  3.167909924339E+00  3.029759758088E+00  2.893995464198E+00  2.760953597338E+00
  2.630942271332E+00  2.504239456466E+00  2.381091635551E+00  2.261712834820E+00
  2.146284039323E+00  2.034952995822E+00  1.927834399376E+00  1.825010453039E+00
  1.726531783561E+00  1.632418689866E+00  1.542662695488E+00  1.457228371375E+00
  1.376055391476E+00  1.299060780604E+00  1.226141312124E+00  1.157176012257E+00
  1.092028728032E+00  1.030550717291E+00  9.725832214212E-01  9.179599845767E-01
  8.665096869049E-01  8.180582634330E-01  7.724310846571E-01  7.294549792113E-01
  6.889600830980E-01  6.507815036200E-01  6.147607892283E-01  5.807471988971E-01
  5.485987663403E-01  5.181831554688E-01  4.893783041014E-01  4.620728533227E-01
  4.361663603243E-01  4.115692933976E-01  3.882028093124E-01  3.659983158782E-01
  3.448968262558E-01  3.248477176654E-01  3.058058100379E-01  2.877279666863E-01
  2.705725361789E-01  2.542997743906E-01  2.388715224434E-01  2.242511614023E-01
  2.104035260962E-01  1.972948246537E-01  1.848925608129E-01  1.731654596162E-01
  1.620833970492E-01  1.516173340382E-01  1.417392551032E-01  1.324221118427E-01
  1.236397713297E-01  1.153669694038E-01  1.075792687749E-01  1.002530217927E-01
  9.336533769883E-02  8.689405415726E-02  8.081772988234E-02  7.511570871977E-02
  6.976822687459E-02  6.475638300656E-02  6.006210924796E-02  5.566814227779E-02
  5.155799506245E-02  4.771592927970E-02  4.412692843690E-02  4.077667168940E-02
  3.765150836040E-02  3.473843315990E-02  3.202506209706E-02  2.949960907767E-02
  2.715086317608E-02  2.496816656940E-02  2.294139312021E-02  2.106092759296E-02
  1.931764548884E-02  1.770289348308E-02  1.620847044867E-02  1.482660905042E-02
  1.354995789355E-02  1.237156421120E-02  1.128485707587E-02  1.028363112005E-02
  9.362030752472E-03  8.514534856361E-03  7.735941957471E-03  7.021355849921E-03
  6.366171668834E-03  5.766062399414E-03  5.216965812784E-03  4.715071819609E-03
  4.256810233104E-03  3.838838933628E-03  3.458032427566E-03  3.111470793664E-03
  2.796429010392E-03  2.510366658211E-03  2.250917990941E-03  2.015882370591E-03
  1.803215060196E-03  1.611018369271E-03  1.437533146546E-03  1.281130614627E-03
  1.140304541148E-03  1.013663740897E-03  8.999249032471E-04  7.979057390415E-04
  7.065184408889E-04  6.247634506081E-04  5.517235273134E-04  4.865581093953E-04
  4.284979633988E-04  3.768401125511E-04  3.309430374514E-04  2.902221412001E-04
  2.541454710290E-04  2.222296882924E-04  1.940362785037E-04  1.691679929462E-04
  1.472655132579E-04  1.280043302958E-04  1.110918285097E-04  9.626456702088E-05
  8.328574858945E-05  7.194286767984E-05  6.204552888370E-05  5.342342704438E-05
  4.592448053733E-05  3.941310929904E-05  3.376864936116E-05  2.888389583348E-05
  2.466376648850E-05  2.102407832827E-05  1.789042975972E-05  1.519718126442E-05
  1.288652772112E-05  1.090765582176E-05  9.215980311550E-06  7.772453079086E-06
  6.542939421162E-06  5.497656106644E-06  4.610666162885E-06  3.859425604645E-06
  3.224377617793E-06  2.688589996728E-06  2.237431914146E-06  1.858286373260E-06
  1.540294955038E-06  1.274131725408E-06  1.051803409221E-06  8.664731684060E-07
  7.123055408682E-07  5.843303040237E-07  4.783232223170E-07  3.907018215718E-07
  3.184345047420E-07  2.589614836770E-07  2.101261501898E-07  1.701156473253E-07
  1.374095286600E-07  1.107355101494E-07  8.903142594643E-08  7.141259722874E-08
  5.714391191505E-08  4.561599374364E-08  3.632491205327E-08  2.885494928343E-08
  2.286400221138E-08  1.807124577999E-08  1.424673553574E-08  1.120266666615E-08
  8.786044854162E-09  6.872557085963E-09  5.361459564923E-09  4.171325380340E-09
  3.236516911909E-09  2.504267450374E-09  1.932273487289E-09  1.486713853023E-09
  1.140624618977E-09  8.725696612352E-10  6.655562203228E-10  5.061528766054E-10
  3.837742646349E-10  2.901027260987E-10  2.186220865500E-10  1.642429571129E-10
  1.230025159336E-10  9.182470950739E-11  6.832931368260E-11  5.068038015444E-11
  3.746632921068E-11  2.760538756768E-11  2.027125805412E-11  1.483488590240E-11
  1.081898827827E-11  7.862670575466E-12  5.693985202072E-12  4.108724397166E-12
  2.954088322392E-12  2.116152007379E-12  1.510282051196E-12  1.073835444094E-12
  7.606174744594E-13  5.366905251148E-13  3.772163889375E-13  2.640862909324E-13
  1.841489610068E-13  1.278909997785E-13  8.845795865125E-14  6.093106012503E-14
  4.179495455301E-14  2.854765436196E-14  1.941584674623E-14  1.314798466445E-14
  8.864542673929E-15  5.950107948755E-15  3.975955479890E-15  2.644739207129E-15
  1.751157058388E-15  1.154102004590E-15  7.570347226784E-16  4.942142644839E-16
  3.210832824406E-16  2.075858863724E-16  1.335457677479E-16  8.548477521570E-17
  5.444369700268E-17  3.449690792317E-17  2.174501331185E-17  1.363512214393E-17
  8.504539616269E-18  5.276029935843E-18  3.255369372518E-18  1.997567443204E-18
  1.218939133780E-18  7.396271936110E-19  4.462359364283E-19  2.676746368201E-19
  1.596286122955E-19  9.463342416702E-20  5.576706222675E-20  3.266473159819E-20
  1.901589960376E-20  1.100168103010E-20  6.325184045339E-21  3.613485949571E-21
  2.050987933260E-21  1.156634627496E-21  6.479882308599E-22  0.000000000000E+00
  0.000000000000E+00  0.000000000000E+00  0.000000000000E+00  0.000000000000E+00
  0.000000000000E+00  0.000000000000E+00  0.000000000000E+00  0.000000000000E+00
  0.000000000000E+00  0.000000000000E+00  0.000000000000E+00  0.000000000000E+00
  0.000000000000E+00  0.000000000000E+00  0.000000000000E+00  0.000000000000E+00
  0.000000000000E+00  0.000000000000E+00  0.000000000000E+00  0.000000000000E+00
  0.000000000000E+00  0.000000000000E+00  0.000000000000E+00  0.000000000000E+00
  0.000000000000E+00
</data>
</radfunc>
</valence-charge>
<semilocal-potentials set="scalar_relativistic">
<slps n="6" l="s" rc="3.23582710833" eref="-0.262194590834">
<radfunc>
<data npts="303">
  1.393481090900E+00  1.392398204629E+00  1.389162867274E+00  1.383771084364E+00
  1.376286835559E+00  1.366467347106E+00  1.353987818474E+00  1.339746008387E+00
  1.322129788947E+00  1.303172161085E+00  1.281912860005E+00  1.258934887648E+00
  1.231341429856E+00  1.202724882523E+00  1.174338391038E+00  1.141882304327E+00
  1.104816113054E+00  1.069973324170E+00  1.031127476886E+00  9.878589245898E-01
  9.397100234537E-01  8.973435534587E-01  8.512604487508E-01  8.011672046280E-01
  7.467514575502E-01  6.876819699639E-01  6.236091490977E-01  5.720510599929E-01
  5.173121441218E-01  4.592277547348E-01  3.976298703075E-01  3.323480769831E-01
  2.632107268899E-01  1.900462744394E-01  1.126847909018E-01  3.095965585241E-02
 -5.529057774233E-02 -1.462201501916E-01 -2.095114804177E-01 -2.749872481799E-01
 -3.426849296542E-01 -4.126390263743E-01 -4.848807218837E-01 -5.594375307228E-01
 -6.363329415700E-01 -7.155860566062E-01 -7.972112294248E-01 -8.812177040644E-01
 -9.676092579852E-01 -1.056383852048E+00 -1.147533290763E+00 -1.241042896273E+00
 -1.336891199672E+00 -1.435049653385E+00 -1.535482368398E+00 -1.638145880109E+00
 -1.742988946547E+00 -1.849952382542E+00 -1.958968933275E+00 -2.069963190301E+00
 -2.182851552848E+00 -2.297542236710E+00 -2.413935332573E+00 -2.531922915011E+00
 -2.651389202767E+00 -2.772210770195E+00 -2.894256809015E+00 -2.955696184354E+00
 -3.017389438741E+00 -3.079318290606E+00 -3.141464063327E+00 -3.203807698667E+00
 -3.266329770786E+00 -3.329010500787E+00 -3.391829771759E+00 -3.454767144264E+00
 -3.517801872236E+00 -3.580912919231E+00 -3.644078974976E+00 -3.707278472180E+00
 -3.770489603535E+00 -3.833690338861E+00 -3.896858442337E+00 -3.959971489763E+00
 -4.023006885793E+00 -4.085941881077E+00 -4.148753589272E+00 -4.211419003841E+00
 -4.273915014608E+00 -4.336218423997E+00 -4.398305962919E+00 -4.460154306240E+00
 -4.521740087798E+00 -4.583039914918E+00 -4.644030382378E+00 -4.704688085806E+00
 -4.764989634454E+00 -4.824911663339E+00 -4.884430844717E+00 -4.943523898872E+00
 -5.002178778338E+00 -5.060325905511E+00 -5.117977174948E+00 -5.175109629018E+00
 -5.231700402230E+00 -5.287726727885E+00 -5.343165944104E+00 -5.397995499241E+00
 -5.452192956755E+00 -5.505735999566E+00 -5.558602433964E+00 -5.610770193138E+00
 -5.662217340387E+00 -5.712922072106E+00 -5.762862720627E+00 -5.812017757002E+00
 -5.860365793844E+00 -5.907885588314E+00 -5.954556045374E+00 -6.000356221419E+00
 -6.045265328403E+00 -6.089262738586E+00 -6.132327990014E+00 -6.174440792863E+00
 -6.215581036773E+00 -6.255728799270E+00 -6.294864355424E+00 -6.332968188828E+00
 -6.370021004007E+00 -6.406003740370E+00 -6.440897587760E+00 -6.474684003700E+00
 -6.507344732384E+00 -6.538861825447E+00 -6.569217664550E+00 -6.598394985779E+00
 -6.626376905830E+00 -6.653146949949E+00 -6.678689081556E+00 -6.702987733442E+00
 -6.726027840437E+00 -6.747794873371E+00 -6.768274874162E+00 -6.787454491792E+00
 -6.805321018946E+00 -6.821862429012E+00 -6.837067413151E+00 -6.850925417087E+00
 -6.863426677255E+00 -6.874562255918E+00 -6.884324074853E+00 -6.892704947159E+00
 -6.899698606775E+00 -6.905299735250E+00 -6.909503985324E+00 -6.912308000890E+00
 -6.913709432918E+00 -6.913706950938E+00 -6.912300249733E+00 -6.909490050910E+00
 -6.905278099089E+00 -6.899667152511E+00 -6.892660967919E+00 -6.884264279689E+00
 -6.874482773232E+00 -6.863323052843E+00 -6.850792604232E+00 -6.836899752145E+00
 -6.821653613558E+00 -6.805064047098E+00 -6.787141599450E+00 -6.767897449648E+00
 -6.747343352293E+00 -6.725491580838E+00 -6.702354872212E+00 -6.677946374150E+00
 -6.652279596667E+00 -6.625368369194E+00 -6.597171274516E+00 -6.567778817813E+00
 -6.537185785866E+00 -6.505407180589E+00 -6.472458245673E+00 -6.438354486913E+00
 -6.403111707224E+00 -6.366746056865E+00 -6.329274099077E+00 -6.290712890872E+00
 -6.251080078308E+00 -6.210394005032E+00 -6.168673832406E+00 -6.125939668940E+00
 -6.082212706313E+00 -6.037515358717E+00 -5.991871401924E+00 -5.945306108082E+00
 -5.897846372123E+00 -5.849520825521E+00 -5.800359933280E+00 -5.750396070206E+00
 -5.699663572931E+00 -5.648198764638E+00 -5.596039950054E+00 -5.543227378997E+00
 -5.489803177503E+00 -5.435811246391E+00 -5.381297127903E+00 -5.326307841932E+00
 -5.270891694147E+00 -5.215098059257E+00 -5.158977143495E+00 -5.102579731459E+00
 -5.045956923451E+00 -4.989159870662E+00 -4.932239516768E+00 -4.875246355796E+00
 -4.818230217432E+00 -4.761240220309E+00 -4.704325313330E+00 -4.647535166204E+00
 -4.590920295853E+00 -4.534531874587E+00 -4.478421800384E+00 -4.422642695234E+00
 -4.367247942746E+00 -4.312291754545E+00 -4.257829271681E+00 -4.203916705431E+00
 -4.150611520825E+00 -4.097972664680E+00 -4.046060837751E+00 -3.994938807714E+00
 -3.944671755997E+00 -3.895327646974E+00 -3.846977602647E+00 -3.799696259749E+00
 -3.753562079275E+00 -3.708657570962E+00 -3.664662668221E+00 -3.621190028435E+00
 -3.578235126398E+00 -3.535791561783E+00 -3.493853037804E+00 -3.452413357391E+00
 -3.411466419611E+00 -3.371006216339E+00 -3.331026829135E+00 -3.291522426338E+00
 -3.252487260353E+00 -3.213915665111E+00 -3.175802053707E+00 -3.138140916187E+00
 -3.100926817480E+00 -3.064154395468E+00 -3.027818359173E+00 -2.991913487067E+00
 -2.956434625477E+00 -2.921376687094E+00 -2.886734649570E+00 -2.852503554192E+00
 -2.818678504637E+00 -2.785254665791E+00 -2.752227262630E+00 -2.719591579165E+00
 -2.687342957428E+00 -2.655476796518E+00 -2.623988551681E+00 -2.592873733432E+00
 -2.562127906718E+00 -2.531746690103E+00 -2.501725755000E+00 -2.472060824908E+00
 -2.442747674698E+00 -2.413782129900E+00 -2.385160066028E+00 -2.356877407910E+00
 -2.328930129050E+00 -2.301314250992E+00 -2.274025842709E+00 -2.247061019998E+00
 -2.220415944897E+00 -2.194086825105E+00 -2.168069913418E+00 -2.142361507171E+00
 -2.116957947697E+00 -2.091855619789E+00 -2.067050951169E+00 -2.042540411973E+00
 -2.018320514237E+00 -1.994387811397E+00 -1.970738897784E+00 -1.947370408139E+00
 -1.924279017132E+00 -1.901461438879E+00 -1.878914426476E+00 -1.856634771532E+00
 -1.834619303712E+00 -1.812864890282E+00 -1.791368435663E+00 -1.770126880990E+00
 -1.749137203673E+00 -1.728396416970E+00 -1.707901569558E+00
</data>
</radfunc>
</slps>
<slps n="6" l="p" rc="3.01232782902" eref="0.999999978952E-01">
<radfunc>
<data npts="303">
  1.657714071101E+00  1.656953717478E+00  1.654682021098E+00  1.650896193445E+00
  1.645641185280E+00  1.638746572602E+00  1.629984348229E+00  1.619984883264E+00
  1.607616267340E+00  1.594305816398E+00  1.579379088773E+00  1.563245001319E+00
  1.543868592197E+00  1.523770990103E+00  1.503830945039E+00  1.481025546601E+00
  1.454969352508E+00  1.430461878475E+00  1.403118566249E+00  1.372631828314E+00
  1.338661636306E+00  1.308725742239E+00  1.276108950535E+00  1.240581804479E+00
  1.201895360950E+00  1.159780012051E+00  1.113944597878E+00  1.076939166435E+00
  1.037525190705E+00  9.955555165599E-01  9.508763477790E-01  9.033275884248E-01
  8.527433062793E-01  7.989523221350E-01  7.417789298764E-01  6.810437528521E-01
  6.165647428296E-01  5.481583285939E-01  5.002813672098E-01  4.505229718713E-01
  3.988293875626E-01  3.451475440033E-01  2.894252992920E-01  2.316116995211E-01
  1.716572544471E-01  1.095142291597E-01  4.513695153685E-02 -2.151786491433E-02
 -9.049078343037E-02 -1.618192924026E-01 -2.355374408895E-01 -3.116754625487E-01
 -3.902593895725E-01 -4.713106584881E-01 -5.548457099606E-01 -6.408755850187E-01
 -7.294055203952E-01 -8.204345459385E-01 -9.139550872947E-01 -1.009952577283E+00
 -1.108405079571E+00 -1.209282928421E+00 -1.312548388358E+00 -1.418155337695E+00
 -1.526048979811E+00 -1.636165586041E+00 -1.748432273859E+00 -1.805346573678E+00
 -1.862766823859E+00 -1.920681264941E+00 -1.979077538714E+00 -2.037942686297E+00
 -2.097263146984E+00 -2.157024757853E+00 -2.217212754157E+00 -2.277811770508E+00
 -2.338805842859E+00 -2.400178411288E+00 -2.461912323593E+00 -2.523989839684E+00
 -2.586392636787E+00 -2.649101815442E+00 -2.712097906290E+00 -2.775360877642E+00
 -2.838870143817E+00 -2.902604574234E+00 -2.966542503231E+00 -3.030661740611E+00
 -3.094939582883E+00 -3.159352825165E+00 -3.223877773749E+00 -3.288490259279E+00
 -3.353165650533E+00 -3.417878868763E+00 -3.482604402591E+00 -3.547316323400E+00
 -3.611988301223E+00 -3.676593621085E+00 -3.741105199776E+00 -3.805495603028E+00
 -3.869748237200E+00 -3.933788595415E+00 -3.997623269431E+00 -4.061223635881E+00