<?xml version="1.0" encoding="UTF-8" ?>
<psml version="1.1" energy_unit="hartree" length_unit="bohr"
 uuid="a9c2bc50-7302-11e7-4671-34606fcfdcae"
 xmlns="http://esl.cecam.org/PSML/ns/1.1">
<provenance creator="ONCVPSP-3.3.0+psml-3.3.0-73 (fully-relativistic)"
 date="2017-07-27">
<annotation action="semilocal-pseudopotential-generation"
 action-cont="projectors-generation" />
<input-file name="oncvpsp-input">
<![CDATA[# ATOM AND REFERENCE CONFIGURATION
# atsym, z, nc, nv, iexc   psfile
    Si  14     3   2   3   upf
#
# n, l, f  (nc+nv lines)
    1    0    2.0
    2    0    2.0
    2    1    6.0
    3    0    2.0
    3    1    2.0
#
# PSEUDOPOTENTIAL AND OPTIMIZATION
# lmax
    2
#
# l, rc, ep, ncon, nbas, qcut  (lmax+1 lines, l's must be in order)
    0    2.70    0.00    5    8    5.00
    1    2.70    0.00    5    8    5.00
    2    2.70    0.10    5    8    5.00
#
# LOCAL POTENTIAL
# lloc, lpopt, rc(5), dvloc0
    4    5    2.7  0.0
#
# VANDERBILT-KLEINMAN-BYLANDER PROJECTORs
# l, nproj, debl  (lmax+1 lines, l's in order)
    0    2    1.0
    1    2    0.75
    2    2    0.75
#
# MODEL CORE CHARGE
# icmod, fcfact
    1    0.25
#
# LOG DERIVATIVE ANALYSIS
# epsh1, epsh2, depsh
   -2.0  2.0  0.02
#
# OUTPUT GRID
# rlmax, drl
    5.0  0.01
#
# TEST CONFIGURATIONS
# ncnf
    3
#
#   nvcnf (repeated ncnf times)
#   n, l, f  (nvcnf lines, repeated follwing nvcnf's ncnf times)
    2
    3    0    1.0
    3    1    2.0
#
    2
    3    0    2.0
    3    1    1.0
#
    2
    3    0    1.0
    3    1    1.0
]]>
</input-file>
</provenance>
<pseudo-atom-spec atomic-label="Si" atomic-number="14" z-pseudo="4"
 flavor="Hamann&apos;s oncvpsp" relativity="dirac" spin-dft="no"
 core-corrections="yes">
<annotation pseudo-energy="-3.79205493419" />
<exchange-correlation>
<annotation oncvpsp-xc-code="3"
 oncvpsp-xc-type="LDA -- Ceperley-Alder Perdew-Zunger" />
<libxc-info number-of-functionals="2">
<functional name="Slater exchange (LDA)" type="exchange" id="1" />
<functional name="Perdew &amp; Zunger (LDA)" type="correlation" id="9" />
</libxc-info>
</exchange-correlation>
<valence-configuration total-valence-charge="4">
<shell n="3" l="s" occupation="2" />
<shell n="3" l="p" occupation="2" />
</valence-configuration>
</pseudo-atom-spec>
<grid npts="457">
<annotation type="sampled from oncvpsp log grid"
 recipe="r(i:1..N) = r1*exp(a*(i-1)) + r=0; resampled"
 recipe-cont="r1: scale; a: step" scale="0.357142857143E-04"
 step="0.119285708653E-01" delta="0.500000000000E-02" rmax="44.1697227368" />
<grid-data>
  0.000000000000E+00  5.043762840785E-03  1.007452045417E-02  1.511338716874E-02
  2.012306398724E-02  2.524200484366E-02  3.055005847129E-02  3.567456681735E-02
  4.067657200651E-02  4.582995923277E-02  5.102395083885E-02  5.613299095240E-02
  6.175360044568E-02  6.713142577090E-02  7.297758014932E-02  7.839214240648E-02
  8.420843742015E-02  8.938366768873E-02  9.487695407084E-02  1.007078434632E-01
  1.068970840635E-01  1.121212442685E-01  1.176007140554E-01  1.233479706417E-01
  1.293761010181E-01  1.356988317486E-01  1.423305602273E-01  1.475161931447E-01
  1.528907580013E-01  1.584611382921E-01  1.642344683032E-01  1.702181422495E-01
  1.764198237449E-01  1.828474556171E-01  1.895092700805E-01  1.964137992801E-01
  2.035698862185E-01  2.109866960820E-01  2.160807588722E-01  2.212978127144E-01
  2.266408271046E-01  2.321128432342E-01  2.377169757212E-01  2.434564143831E-01
  2.493344260519E-01  2.553543564345E-01  2.615196320163E-01  2.678337620117E-01
  2.743003403617E-01  2.809230477794E-01  2.877056538450E-01  2.946520191514E-01
  3.017660975018E-01  3.090519381599E-01  3.165136881548E-01  3.241555946416E-01
  3.319820073186E-01  3.399973809033E-01  3.482062776679E-01  3.566133700359E-01
  3.652234432420E-01  3.740413980557E-01  3.830722535703E-01  3.923211500605E-01
  4.017933519076E-01  4.114942505960E-01  4.214293677824E-01  4.264865201958E-01
  4.316043584382E-01  4.367836107394E-01  4.420250140683E-01  4.473293142371E-01
  4.526972660080E-01  4.581296332001E-01  4.636271887985E-01  4.691907150641E-01
  4.748210036448E-01  4.805188556886E-01  4.862850819568E-01  4.921205029403E-01
  4.980259489756E-01  5.040022603633E-01  5.100502874877E-01  5.161708909375E-01
  5.223649416288E-01  5.286333209283E-01  5.349769207794E-01  5.413966438288E-01
  5.478934035547E-01  5.544681243974E-01  5.611217418902E-01  5.678552027928E-01
  5.746694652264E-01  5.815654988091E-01  5.885442847948E-01  5.956068162123E-01
  6.027540980069E-01  6.099871471830E-01  6.173069929492E-01  6.247146768645E-01
  6.322112529869E-01  6.397977880228E-01  6.474753614790E-01  6.552450658168E-01
  6.631080066066E-01  6.710653026859E-01  6.791180863181E-01  6.872675033539E-01
  6.955147133942E-01  7.038608899549E-01  7.123072206343E-01  7.208549072820E-01
  7.295051661693E-01  7.382592281634E-01  7.471183389013E-01  7.560837589681E-01
  7.651567640758E-01  7.743386452447E-01  7.836307089876E-01  7.930342774955E-01
  8.025506888254E-01  8.121812970913E-01  8.219274726564E-01  8.317906023283E-01
  8.417720895562E-01  8.518733546309E-01  8.620958348865E-01  8.724409849051E-01
  8.829102767240E-01  8.935052000447E-01  9.042272624452E-01  9.150779895945E-01
  9.260589254697E-01  9.371716325753E-01  9.484176921662E-01  9.597987044722E-01
  9.713162889259E-01  9.829720843930E-01  9.947677494057E-01  1.006704962399E+00
  1.018785421947E+00  1.031010847011E+00  1.043382977175E+00  1.055903572901E+00
  1.068574415776E+00  1.081397308765E+00  1.094374076470E+00  1.107506565388E+00
  1.120796644173E+00  1.134246203903E+00  1.147857158349E+00  1.161631444250E+00
  1.175571021581E+00  1.189677873840E+00  1.203954008326E+00  1.218401456426E+00
  1.233022273903E+00  1.247818541190E+00  1.262792363684E+00  1.277945872048E+00
  1.293281222513E+00  1.308800597183E+00  1.324506204349E+00  1.340400278801E+00
  1.356485082147E+00  1.372762903132E+00  1.389236057970E+00  1.405906890666E+00
  1.422777773354E+00  1.439851106634E+00  1.457129319914E+00  1.474614871753E+00
  1.492310250214E+00  1.510217973216E+00  1.528340588895E+00  1.546680675961E+00
  1.565240844073E+00  1.584023734202E+00  1.603032019012E+00  1.622268403240E+00
  1.641735624079E+00  1.661436451568E+00  1.681373688987E+00  1.701550173255E+00
  1.721968775334E+00  1.742632400638E+00  1.763543989446E+00  1.784706517319E+00
  1.806122995527E+00  1.827796471473E+00  1.849730029131E+00  1.871926789480E+00
  1.894389910954E+00  1.917122589886E+00  1.940128060964E+00  1.963409597696E+00
  1.986970512868E+00  2.010814159023E+00  2.034943928931E+00  2.059363256078E+00
  2.084075615151E+00  2.109084522533E+00  2.134393536803E+00  2.160006259245E+00
  2.185926334356E+00  2.212157450368E+00  2.238703339772E+00  2.265567779850E+00
  2.292754593208E+00  2.320267648326E+00  2.348110860106E+00  2.376288190428E+00
  2.404803648713E+00  2.433661292497E+00  2.462865228007E+00  2.492419610743E+00
  2.522328646072E+00  2.552596589825E+00  2.583227748903E+00  2.614226481890E+00
  2.645597199672E+00  2.677344366069E+00  2.709472498461E+00  2.741986168443E+00
  2.774890002464E+00  2.808188682494E+00  2.841886946684E+00  2.875989590044E+00
  2.910501465124E+00  2.945427482706E+00  2.980772612498E+00  3.016541883848E+00
  3.052740386455E+00  3.089373271092E+00  3.126445750345E+00  3.163963099349E+00
  3.201930656541E+00  3.240353824420E+00  3.279238070313E+00  3.318588927157E+00
  3.358411994283E+00  3.398712938214E+00  3.439497493473E+00  3.480771463394E+00
  3.522540720955E+00  3.564811209606E+00  3.607588944122E+00  3.650880011451E+00
  3.694690571589E+00  3.739026858448E+00  3.783895180749E+00  3.829301922918E+00
  3.875253545993E+00  3.921756588545E+00  3.968817667608E+00  4.016443479619E+00
  4.064640801374E+00  4.113416490991E+00  4.162777488883E+00  4.212730818749E+00
  4.263283588574E+00  4.314442991637E+00  4.366216307537E+00  4.418610903227E+00
  4.471634234066E+00  4.525293844875E+00  4.579597371013E+00  4.634552539465E+00
  4.690167169939E+00  4.746449175978E+00  4.803406566090E+00  4.861047444883E+00
  4.919380014222E+00  4.978412574392E+00  5.038153525285E+00  5.098611367588E+00
  5.159794703999E+00  5.221712240447E+00  5.284372787333E+00  5.347785260781E+00
  5.411958683910E+00  5.476902188117E+00  5.542625014375E+00  5.609136514547E+00
  5.676446152722E+00  5.744563506554E+00  5.813498268633E+00  5.883260247857E+00
  5.953859370831E+00  6.025305683281E+00  6.097609351480E+00  6.170780663698E+00
  6.244830031662E+00  6.319767992042E+00  6.395605207947E+00  6.472352470442E+00
  6.550020700087E+00  6.628620948488E+00  6.708164399870E+00  6.788662372669E+00
  6.870126321141E+00  6.952567836994E+00  7.035998651038E+00  7.120430634851E+00
  7.205875802469E+00  7.292346312099E+00  7.379854467844E+00  7.468412721458E+00
  7.558033674116E+00  7.648730078205E+00  7.740514839143E+00  7.833401017213E+00
  7.927401829420E+00  8.022530651373E+00  8.118801019189E+00  8.216226631419E+00
  8.314821350996E+00  8.414599207208E+00  8.515574397695E+00  8.617761290467E+00
  8.721174425953E+00  8.825828519064E+00  8.931738461293E+00  9.038919322829E+00
  9.147386354702E+00  9.257154990959E+00  9.368240850850E+00  9.480659741061E+00
  9.594427657953E+00  9.709560789849E+00  9.826075519327E+00  9.943988425559E+00
  1.006331628667E+01  1.018407608211E+01  1.030628499509E+01  1.042996041503E+01
  1.055511994001E+01  1.068178137929E+01  1.080996275584E+01  1.093968230891E+01
  1.107095849662E+01  1.120380999858E+01  1.133825571856E+01  1.147431478719E+01
  1.161200656463E+01  1.175135064341E+01  1.189236685113E+01  1.203507525334E+01
  1.217949615638E+01  1.232565011026E+01  1.247355791158E+01  1.262324060652E+01
  1.277471949380E+01  1.292801612773E+01  1.308315232126E+01  1.324015014911E+01
  1.339903195090E+01  1.355982033431E+01  1.372253817832E+01  1.388720863646E+01
  1.405385514010E+01  1.422250140178E+01  1.439317141861E+01  1.456588947563E+01
  1.474068014934E+01  1.491756831113E+01  1.509657913086E+01  1.527773808043E+01
  1.546107093740E+01  1.564660378865E+01  1.583436303411E+01  1.602437539052E+01
  1.621666789521E+01  1.641126790995E+01  1.660820312487E+01  1.680750156237E+01
  1.700919158111E+01  1.721330188009E+01  1.741986150265E+01  1.762889984068E+01
  1.784044663877E+01  1.805453199843E+01  1.827118638241E+01  1.849044061900E+01
  1.871232590643E+01  1.893687381731E+01  1.916411630312E+01  1.939408569875E+01
  1.962681472714E+01  1.986233650386E+01  2.010068454191E+01  2.034189275641E+01
  2.058599546949E+01  2.083302741512E+01  2.108302374411E+01  2.133602002904E+01
  2.159205226938E+01  2.185115689662E+01  2.211337077938E+01  2.237873122873E+01
  2.264727600347E+01  2.291904331551E+01  2.319407183530E+01  2.347240069732E+01
  2.375406950569E+01  2.403911833976E+01  2.432758775984E+01  2.461951881296E+01
  2.491495303871E+01  2.521393247518E+01  2.551649966488E+01  2.582269766086E+01
  2.613257003279E+01  2.644616087318E+01  2.676351480366E+01  2.708467698130E+01
  2.740969310508E+01  2.773860942234E+01  2.807147273541E+01  2.840833040823E+01
  2.874923037313E+01  2.909422113761E+01  2.944335179126E+01  2.979667201275E+01
  3.015423207691E+01  3.051608286183E+01  3.088227585617E+01  3.125286316645E+01
  3.162789752444E+01  3.200743229474E+01  3.239152148227E+01  3.278021974006E+01
  3.317358237694E+01  3.357166536547E+01  3.397452534985E+01  3.438221965405E+01
  3.479480628990E+01  3.521234396538E+01  3.563489209296E+01  3.606251079808E+01
  3.649526092765E+01  3.693320405879E+01  3.737640250749E+01  3.782491933758E+01
  3.827881836963E+01  3.873816419007E+01  3.920302216035E+01  3.967345842627E+01
  4.014953992739E+01  4.063133440652E+01  4.111891041939E+01  4.161233734443E+01
  4.211168539256E+01  4.261702561727E+01  4.312842992468E+01  4.364597108377E+01
  4.416972273678E+01
</grid-data>
</grid>
<valence-charge total-charge="4" is-unscreening-charge="yes"
 rescaled-to-z-pseudo="no">
<radfunc>
<data npts="457">
  7.349279715428E-02  7.350892183566E-02  7.355713027568E-02  7.363758062139E-02
  7.374948026829E-02  7.389669820320E-02  7.408446045220E-02  7.429965042915E-02
  7.454184602293E-02  7.482460246273E-02  7.514372867814E-02  7.549109227177E-02
  7.591159098647E-02  7.635156644358E-02  7.687164488611E-02  7.739218759972E-02
  7.799301807333E-02  7.856394002255E-02  7.920739568280E-02  7.993262571927E-02
  8.075005389475E-02  8.147823229280E-02  8.227962175759E-02  8.316160956801E-02
  8.413233260848E-02  8.520075386543E-02  8.637674667788E-02  8.733583743875E-02
  8.836652392536E-02  8.947417319976E-02  9.066455617790E-02  9.194387780998E-02
  9.331880938454E-02  9.479652306338E-02  9.638472874678E-02  9.809171335743E-02
  9.992638261463E-02  1.018983053468E-01  1.032942176935E-01  1.047589152866E-01
  1.062957858191E-01  1.079083806967E-01  1.096004222160E-01  1.113758109239E-01
  1.132386331370E-01  1.151931685966E-01  1.172438982282E-01  1.193955119671E-01
  1.216529166042E-01  1.240212435966E-01  1.265058567768E-01  1.291123598841E-01
  1.318466038242E-01  1.347146935537E-01  1.377229944622E-01  1.408781381110E-01
  1.441870271617E-01  1.476568393051E-01  1.512950299748E-01  1.551093335967E-01
  1.591077630964E-01  1.632986073468E-01  1.676904261997E-01  1.722920427016E-01
  1.771125320482E-01  1.821612067780E-01  1.874475976561E-01  1.901829688828E-01
  1.929814296390E-01  1.958442210289E-01  1.987725922516E-01  2.017677993176E-01
  2.048311036481E-01  2.079637705504E-01  2.111670675607E-01  2.144422626494E-01
  2.177906222795E-01  2.212134093109E-01  2.247118807427E-01  2.282872852854E-01
  2.319408607538E-01  2.356738312733E-01  2.394874042892E-01  2.433827673718E-01
  2.473610848074E-01  2.514234939657E-01  2.555711014357E-01  2.598049789200E-01
  2.641261588792E-01  2.685356299168E-01  2.730343318961E-01  2.776231507809E-01
  2.823029131915E-01  2.870743806674E-01  2.919382436307E-01  2.968951150425E-01
  3.019455237457E-01  3.070899074898E-01  3.123286056322E-01  3.176618515127E-01
  3.230897644989E-01  3.286123417014E-01  3.342294493584E-01  3.399408138922E-01
  3.457460126411E-01  3.516444642719E-01  3.576354188806E-01  3.637179477921E-01
  3.698909330701E-01  3.761530567538E-01  3.825027898384E-01  3.889383810214E-01
  3.954578452397E-01  4.020589520248E-01  4.087392137101E-01  4.154958735254E-01
  4.223258936188E-01  4.292259430536E-01  4.361923858280E-01  4.432212689731E-01
  4.503083107907E-01  4.574488892945E-01  4.646380309279E-01  4.718703996332E-01
  4.791402863558E-01  4.864415990719E-01  4.937678534326E-01  5.011121641263E-01
  5.084672370628E-01  5.158253624926E-01  5.231784091773E-01  5.305178197327E-01
  5.378346072729E-01  5.451193534850E-01  5.523622082711E-01  5.595528910958E-01
  5.666806941806E-01  5.737344876879E-01  5.807027270398E-01  5.875734625140E-01
  5.943343512615E-01  6.009726718848E-01  6.074753417129E-01  6.138289369042E-01
  6.200197155003E-01  6.260336435451E-01  6.318564243722E-01  6.374735311512E-01
  6.428702427679E-01  6.480316830953E-01  6.529428636937E-01  6.575887299546E-01
  6.619542106794E-01  6.660242710547E-01  6.697839689590E-01  6.732185144997E-01
  6.763133326477E-01  6.790541287970E-01  6.814269570384E-01  6.834182908964E-01
  6.850150962305E-01  6.862049059642E-01  6.869758962521E-01  6.873169636540E-01
  6.872178028364E-01  6.866689842738E-01  6.856620313799E-01  6.841894964532E-01
  6.822450347796E-01  6.798234761989E-01  6.769208934065E-01  6.735346662341E-01
  6.696635411314E-01  6.653076850542E-01  6.604687329601E-01  6.551498281148E-01
  6.493556544244E-01  6.430924600380E-01  6.363680714978E-01  6.291918977690E-01
  6.215749235451E-01  6.135296913053E-01  6.050702716944E-01  5.962122219079E-01
  5.869725318874E-01  5.773695582731E-01  5.674229462115E-01  5.571535392799E-01
  5.465832779663E-01  5.357350873212E-01  5.246327545894E-01  5.133007978128E-01
  5.017643265854E-01  4.900488963176E-01  4.781803575383E-01  4.661847019113E-01
  4.540879067793E-01  4.419157801483E-01  4.296938081057E-01  4.174470066983E-01
  4.051997803010E-01  3.929757884586E-01  3.807978230924E-01  3.686876978266E-01
  3.566661509968E-01  3.447527636671E-01  3.329658936981E-01  3.213226265795E-01
  3.098387433730E-01  2.985287057184E-01  2.874056574298E-01  2.764814417829E-01
  2.657666331605E-01  2.552705813062E-01  2.450014660553E-01  2.349663600681E-01
  2.251712968231E-01  2.156213409330E-01  2.063206577577E-01  1.972725793142E-01
  1.884796636347E-01  1.799437450126E-01  1.716659730113E-01  1.636468389758E-01
  1.558861963801E-01  1.483832908517E-01  1.411367965715E-01  1.341448518514E-01
  1.274050952545E-01  1.209147014266E-01  1.146704165953E-01  1.086685935745E-01
  1.029052261522E-01  9.737598274453E-02  9.207623921375E-02  8.700111075497E-02
  8.214548276990E-02  7.750404065492E-02  7.307129844165E-02  6.884162623782E-02
  6.480927642598E-02  6.096840858675E-02  5.731311312197E-02  5.383743356150E-02
  5.053538754528E-02  4.740098647947E-02  4.442825387228E-02  4.161124236166E-02
  3.894404945242E-02  3.642083198590E-02  3.403581936989E-02  3.178332560075E-02
  2.965776011356E-02  2.765363749911E-02  2.576558612959E-02  2.398835573699E-02
  2.231682399023E-02  2.074600211848E-02  1.927103962924E-02  1.788722817053E-02
  1.659000458691E-02  1.537495321918E-02  1.423780749734E-02  1.317445087603E-02
  1.218091716089E-02  1.125339027334E-02  1.038820350031E-02  9.581838273925E-03
  8.830922524964E-03  8.132228652195E-03  7.482671148072E-03  6.879303919544E-03
  6.319317340876E-03  5.800035073538E-03  5.318910686304E-03  4.873524106769E-03
  4.461577933594E-03  4.080893636838E-03  3.729407671850E-03  3.405167530331E-03
  3.106327750319E-03  2.831145905094E-03  2.577978589258E-03  2.345277418562E-03
  2.131585058474E-03  1.935531294933E-03  1.755829159264E-03  1.591271117872E-03
  1.440725335986E-03  1.303132023525E-03  1.177499869990E-03  1.062902574207E-03
  9.584754737544E-04  8.634122779793E-04  7.769619076568E-04  6.984254435657E-04
  6.271531855408E-04  5.625418229163E-04  5.040317166881E-04  4.511042931998E-04
  4.032795486863E-04  3.601136635919E-04  3.211967252127E-04  2.861505568909E-04
  2.546266517097E-04  2.263042083970E-04  2.008882669428E-04  1.781079412653E-04
  1.577147461177E-04  1.394810153197E-04  1.231984083045E-04  1.086765019115E-04
  9.574146430705E-05  8.423480789032E-05  7.401221802956E-05  6.494245447951E-05
  5.690632234604E-05  4.979570949289E-05  4.351268732323E-05  3.796867191547E-05
  3.308364254752E-05  2.878541470441E-05  2.500896473127E-05  2.169580336552E-05
  1.879339545797E-05  1.625462327215E-05  1.403729083379E-05  1.210366688697E-05
  1.042006410055E-05  8.956452256478E-06  7.686103240768E-06  6.585265747756E-06
  5.632867698335E-06  4.810244462665E-06  4.100891067416E-06  3.490236656359E-06
  2.965439560861E-06  2.515201423353E-06  2.129598901794E-06  1.799931566425E-06
  1.518584681384E-06  1.278905642935E-06  1.075092922934E-06  9.020964405565E-07
  7.555283571722E-07  6.315833583554E-07  5.269675534049E-07  4.388351862176E-07
  3.647324119481E-07  3.025474515140E-07  2.504664906727E-07  2.069347420969E-07
  1.706221376328E-07  1.403931637678E-07  1.152803963101E-07  9.446133045903E-08
  7.723813988375E-08  6.302003322310E-08  5.130790865471E-08  4.168103696290E-08
  3.378553096543E-08  2.732438435050E-08  2.204888604258E-08  1.775123727567E-08
  1.425821772251E-08  1.142576442747E-08  9.134343035237E-09  7.285005013231E-09
  5.796037344240E-09  4.600122627940E-09  3.641937779353E-09  2.876128651174E-09
  2.265606030787E-09  1.780115663066E-09  1.395041312723E-09  1.090405485526E-09
  8.500373515704E-10  6.608817257215E-10  5.124267250916E-10  3.962310003861E-10
  3.055342817350E-10  2.349374399020E-10  1.801403857461E-10  1.377279553773E-10
  1.049954924202E-10  7.980717522618E-11  6.048127529136E-11  4.569749982031E-11
  3.442238964199E-11  2.584943410152E-11  1.935114523353E-11  1.444082032854E-11
  1.074212878253E-11  7.964997912133E-12  5.886553654695E-12  4.336104752265E-12
  3.183350880289E-12  2.329152848442E-12  1.698332125465E-12  1.234072324153E-12
  8.935809924437E-13  6.447395202791E-13  4.635250695470E-13  3.320335756649E-13
  2.369690630396E-13  1.684934303175E-13  1.193538742649E-13  8.422336933766E-14
  5.920403562294E-14  4.145457253133E-14  2.891182930748E-14  2.008352859231E-14
  1.389456154423E-14  9.573458510867E-15  6.568869006815E-15  4.488366581502E-15
  3.053796585796E-15  2.068824551658E-15  1.395457017811E-15  9.371210923395E-16
  6.265248909007E-16  4.169855001686E-16  2.762612281547E-16  1.821844668574E-16
  1.195834126287E-16  7.812215077724E-17  5.079210830586E-17  3.286335607220E-17
  2.115902667649E-17  1.355569117569E-17  8.640990783938E-18  5.480176164630E-18
  3.457699252283E-18  2.170268588798E-18  1.355015394454E-18  8.414892990516E-19
  0.000000000000E+00  0.000000000000E+00  0.000000000000E+00  0.000000000000E+00
  0.000000000000E+00  0.000000000000E+00  0.000000000000E+00  0.000000000000E+00
  0.000000000000E+00  0.000000000000E+00  0.000000000000E+00  0.000000000000E+00
  0.000000000000E+00  0.000000000000E+00  0.000000000000E+00  0.000000000000E+00
  0.000000000000E+00  0.000000000000E+00  0.000000000000E+00  0.000000000000E+00
  0.000000000000E+00
</data>
</radfunc>
</valence-charge>
<pseudocore-charge matching-radius="1.40590689067"
 number-of-continuous-derivatives="4">
<annotation model-charge-form="Polynomial" />
<radfunc>
<data npts="275">
  7.024804422741E+00  7.024804399941E+00  7.024804038359E+00  7.024802450482E+00
  7.024798209454E+00  7.024789068289E+00  7.024771615006E+00  7.024743737505E+00
  7.024702449567E+00  7.024641165951E+00  7.024555334707E+00  7.024442140966E+00
  7.024278004492E+00  7.024075020745E+00  7.023794619269E+00  7.023470864917E+00
  7.023044571245E+00  7.022588220707E+00  7.022015109298E+00  7.021295895949E+00
  7.020394048307E+00  7.019510898450E+00  7.018453799829E+00  7.017189255071E+00
  7.015677519144E+00  7.013871488311E+00  7.011715406159E+00  7.009829402501E+00
  7.007677553964E+00  7.005223526085E+00  7.002426238726E+00  6.999239289260E+00
  6.995610314169E+00  6.991480284261E+00  6.986782728691E+00  6.981442883127E+00
  6.975376757686E+00  6.968490120723E+00  6.963391555202E+00  6.957847326407E+00
  6.951820466067E+00  6.945271188834E+00  6.938156709501E+00  6.930431052601E+00
  6.922044854720E+00  6.912945159962E+00  6.903075209166E+00  6.892374223645E+00
  6.880777184401E+00  6.868214608011E+00  6.854612320614E+00  6.839891231712E+00
  6.823967109819E+00  6.806750362354E+00  6.788145822535E+00  6.768052546501E+00
  6.746363624338E+00  6.722966009233E+00  6.697740369522E+00  6.670560969044E+00
  6.641295581879E+00  6.609805448237E+00  6.575945279087E+00  6.539563317873E+00
  6.500501468535E+00  6.458595499968E+00  6.413675337909E+00  6.390030282423E+00
  6.365565456218E+00  6.340258149238E+00  6.314085380409E+00  6.287023920486E+00
  6.259050317220E+00  6.230140922963E+00  6.200271924833E+00  6.169419377566E+00
  6.137559239186E+00  6.104667409630E+00  6.070719772445E+00  6.035692239705E+00
  5.999560800272E+00  5.962301571546E+00  5.923890854811E+00  5.884305194344E+00
  5.843521440378E+00  5.801516816069E+00  5.758268988573E+00  5.713756144352E+00
  5.667957068811E+00  5.620851230372E+00  5.572418869064E+00  5.522641089713E+00
  5.471499959790E+00  5.418978611967E+00  5.365061351414E+00  5.309733767844E+00
  5.252982852295E+00  5.194797118615E+00  5.135166729588E+00  5.074083627600E+00
  5.011541669725E+00  4.947536767064E+00  4.882067028123E+00  4.815132905996E+00
  4.746737349040E+00  4.676885954692E+00  4.605587126032E+00  4.532852230600E+00
  4.458695760949E+00  4.383135496314E+00  4.306192664711E+00  4.227892104702E+00
  4.148262425969E+00  4.067336167746E+00  3.985149954059E+00  3.901744644631E+00
  3.817165480186E+00  3.731462220773E+00  3.644689275626E+00  3.556905822925E+00
  3.468175917732E+00  3.378568586207E+00  3.288157904096E+00  3.197023057342E+00
  3.105248382538E+00  3.012923384789E+00  2.920142730440E+00  2.827006211975E+00
  2.733618682282E+00  2.640089955371E+00  2.546534670509E+00  2.453072116684E+00
  2.359826014215E+00  2.266924250313E+00  2.174498565371E+00  2.082684186807E+00
  1.991619407349E+00  1.901445104794E+00  1.812304200445E+00  1.724341053717E+00
  1.637700790757E+00  1.552528565342E+00  1.468968750950E+00  1.387164063542E+00
  1.307254615489E+00  1.229376902106E+00  1.153662723489E+00  1.080238045812E+00
  1.009221808005E+00  9.407246817177E-01  8.748477948964E-01  8.116814320124E-01
  7.513037272028E-01  6.937793702499E-01  6.391583495649E-01  5.874747612023E-01
  5.387457184938E-01  4.929704032361E-01  4.501293066080E-01  4.101837162185E-01
  3.730755150269E-01  3.387273684666E-01  3.070433880791E-01  2.779103735023E-01
  2.511997499311E-01  2.267703353785E-01  2.044720914415E-01  1.841510330595E-01
  1.656554184681E-01  1.488413913172E-01  1.335744433696E-01  1.197290434823E-01
  1.071881991614E-01  9.584302565209E-02  8.559232379612E-02  7.634216766082E-02
  6.800550286677E-02  6.050175639025E-02  5.375645849738E-02  4.770087735048E-02
  4.227166671729E-02  3.741052711170E-02  3.306388059906E-02  2.918255941125E-02
  2.572150843538E-02  2.263950156601E-02  1.989887184298E-02  1.746525523629E-02
  1.530734788444E-02  1.339667654409E-02  1.170738196582E-02  1.021601487332E-02
  8.901344191018E-03  7.744177137624E-03  6.727190780538E-03  5.834774627377E-03
  5.052883816681E-03  4.368902459241E-03  3.771516674416E-03  3.250596862002E-03
  2.797088749369E-03  2.402912755441E-03  2.060871217410E-03  1.764563032586E-03
  1.508305276271E-03  1.287061366734E-03  1.096375360055E-03  9.323119705962E-04
  7.914019268787E-04  6.705922875958E-04  5.672013580833E-04  4.788778637180E-04
  4.035640531973E-04  3.394624213590E-04  2.850057579695E-04  2.388302456326E-04
  1.997513465302E-04  1.667422340039E-04  1.389145409334E-04  1.155012123945E-04
  9.584126511255E-05  7.936627071961E-05  6.558839373120E-05  5.408982844311E-05
  4.451349159016E-05  3.655483958690E-05  2.995469047668E-05  2.449294134762E-05
  1.998308193479E-05  1.626741442654E-05  1.321289814220E-05  1.070754576640E-05
  8.657305232418E-06  6.983368166468E-06  5.619852063511E-06  4.511809088936E-06
  3.613519619261E-06  2.887033377246E-06  2.300925312679E-06  1.829237259068E-06
  1.450579888006E-06  1.147372615891E-06  9.052019199468E-07  7.122810192368E-07
  5.589960974781E-07  4.375262126017E-07  3.415257766200E-07  2.658600203550E-07
  2.063852015762E-07  1.597664912284E-07  1.233274984323E-07  9.492628716839E-08
  7.285351099330E-08  5.574896047822E-08  4.253339374581E-08  3.235301476810E-08
  2.453438712080E-08  1.854793176658E-08  1.397846429194E-08  1.050148708121E-08
  7.864171584826E-09  5.870150782665E-09  4.367397124844E-09  3.238591002502E-09
  2.393492951294E-09  1.762922612900E-09  1.294021822700E-09  9.465405074060E-10
  6.899344695684E-10  5.011054046992E-10  3.626471721036E-10  2.614897198221E-10
  1.878542430739E-10  1.344510554929E-10  9.586604490682E-11
</data>
</radfunc>
</pseudocore-charge>
<semilocal-potentials set="lj">
<slps n="3" l="s" j="0.5" rc="2.70947249846" eref="-0.399979628917">
<radfunc>
<data npts="275">
  5.658531131228E+00  5.657736450274E+00  5.655361316309E+00  5.651400216265E+00
  5.645895916023E+00  5.638663623743E+00  5.629454836101E+00  5.618921896180E+00
  5.607093899264E+00  5.593320815941E+00  5.577822242666E+00  5.561007581856E+00
  5.540729375703E+00  5.519601266078E+00  5.494743531487E+00  5.469989594332E+00
  5.441573045844E+00  5.414724011165E+00  5.384640941737E+00  5.350957429124E+00
  5.313271560709E+00  5.279947269648E+00  5.243538304199E+00  5.203785599369E+00
  5.160413618682E+00  5.113130389779E+00  5.061627808020E+00  5.020037807835E+00
  4.975750759250E+00  4.928620471644E+00  4.878496920295E+00  4.825226772793E+00
  4.768654026659E+00  4.708620768139E+00  4.644968061823E+00  4.577536979991E+00
  4.506169779554E+00  4.430711232897E+00  4.378057673453E+00  4.323474928222E+00
  4.266920862218E+00  4.208354937329E+00  4.147738473985E+00  4.085034925507E+00
  4.020210164376E+00  3.953232779388E+00  3.884074382511E+00  3.812709923955E+00
  3.739118013797E+00  3.663281248196E+00  3.585186538022E+00  3.504825437461E+00
  3.422194469928E+00  3.337295448381E+00  3.250135786918E+00  3.160728800381E+00
  3.069093988475E+00  2.975257300862E+00  2.879251379550E+00  2.781115774901E+00
  2.680897131601E+00  2.578649341015E+00  2.474433656519E+00  2.368318768580E+00
  2.260380836705E+00  2.150703475683E+00  2.039377694017E+00  1.983127081035E+00
  1.926501782924E+00  1.869515197518E+00  1.812181154850E+00  1.754513909323E+00
  1.696528131089E+00  1.638238896659E+00  1.579661678735E+00  1.520812335300E+00
  1.461707097963E+00  1.402362559609E+00  1.342795661337E+00  1.283023678758E+00
  1.223064207649E+00  1.162935149009E+00  1.102654693561E+00  1.042241305720E+00
  9.817137070865E-01  9.210908595015E-01  8.603919477119E-01  7.996363616953E-01
  7.388436786993E-01  6.780336450474E-01  6.172261577700E-01  5.564412461195E-01
  4.956990530307E-01  4.350198165893E-01  3.744238515744E-01  3.139315311404E-01
  2.535632687083E-01  1.933395001333E-01  1.332806662225E-01  7.340719567321E-02
  1.373948850488E-02 -4.570209993929E-02 -1.048972743476E-01 -1.638258140745E-01
 -2.224675869772E-01 -2.808025623778E-01 -3.388108230692E-01 -3.964725762872E-01
 -4.537681635664E-01 -5.106780693982E-01 -5.671829286085E-01 -6.232635323694E-01
 -6.789008327609E-01 -7.340759457948E-01 -7.887701528127E-01 -8.429649001686E-01
 -8.966417971058E-01 -9.497826117333E-01 -1.002369265011E+00 -1.054383822648E+00
 -1.105808484816E+00 -1.156625573590E+00 -1.206817518010E+00 -1.256366836690E+00
 -1.305256117870E+00 -1.353467996832E+00 -1.400985130625E+00 -1.447790170010E+00
 -1.493865728614E+00 -1.539194349259E+00 -1.583758467481E+00 -1.627508316845E+00
 -1.670467595224E+00 -1.712608673639E+00 -1.753913191512E+00 -1.794362464099E+00
 -1.833937432758E+00 -1.872618614502E+00 -1.910386051671E+00 -1.947219262818E+00