<?xml version="1.0" encoding="UTF-8" ?>
<psml version="1.1" energy_unit="hartree" length_unit="bohr"
 uuid="be6c1560-7303-11e7-4c75-0e882bdee310"
 xmlns="http://esl.cecam.org/PSML/ns/1.1">
<provenance record-number="2" creator="psop-1.1" date="2017-07-27">
<annotation source-uuid="1bf5b8e0-6e35-11e7-5d29-9393f36f9448"
 command-line="psop -o Ba.sc-ionic-siesta-vnl.psml Ba.sc-ionic.psml"
 action="inserted-local-potential" action-cont="inserted-nonlocal-projectors" />
</provenance>
<provenance record-number="1" creator="ATM4.2.6" date="21-JUL-17">
<annotation action="semilocal-pseudopotential-generation" />
<input-file name="INP">
<![CDATA[#
#  Note that this configuration is ionic (+2)
#
   pg Ba with 5s as semicore, 5p in valence -- soft Vf
        tm2     3.00
 n=Ba c=car
       0.0       0.0      0.0       0.0       0.0        0.0
    9    4
    5    0      2.00                            # 5s2
    5    1      6.00                            # 5p6
    5    2      0.00
    4    3      0.00
      1.75      2.00      2.50      2.50     0.00       0.00

#23456789012345678901234567890123456789012345678901234567890      Ruler

]]>
</input-file>
</provenance>
<pseudo-atom-spec atomic-label="Ba" atomic-number="56" z-pseudo="10"
 flavor="Troullier-Martins" relativity="dirac" spin-dft="no"
 core-corrections="no">
<annotation pseudo-energy="-24.9269163019" />
<exchange-correlation>
<annotation atom-xc-code="ca" siesta-xc-type="LDA" siesta-xc-authors="CA" />
<libxc-info number-of-functionals="2">
<functional name="XC_LDA_X" type="XC_EXCHANGE" id="1" />
<functional name="XC_LDA_C_PZ" type="XC_CORRELATION" id="9" />
</libxc-info>
</exchange-correlation>
<valence-configuration total-valence-charge="8">
<shell n="5" l="s" occupation="2" />
<shell n="5" l="p" occupation="6" />
</valence-configuration>
</pseudo-atom-spec>
<grid npts="376">
<annotation type="sampled-log-atom"
 recipe="r(i:1..N) = a*(exp(b*(i-1))-1); resampled"
 recipe-cont="a: scale; b: step" scale="0.442634317262E-04"
 step="0.125000000000E-01" delta="0.500000000000E-02" rmax="20" />
<grid-data>
  0.000000000000E+00  5.008339731026E-03  1.013042986704E-02  1.513459532230E-02
  2.019053037304E-02  2.529622850744E-02  3.052220448050E-02  3.591560634453E-02
  4.121615249609E-02  4.670991304977E-02  5.227703836352E-02  5.777971770824E-02
  6.306727348278E-02  6.883833533072E-02  7.420319804606E-02  7.998589853860E-02
  8.514740053198E-02  9.064179080363E-02  9.649053880294E-02  1.027164986398E-01
  1.079851555756E-01  1.135239423290E-01  1.193467087518E-01  1.254680147931E-01
  1.319031669063E-01  1.369451417294E-01  1.421797804796E-01  1.476144452305E-01
  1.532567793750E-01  1.591147183754E-01  1.651965009238E-01  1.715106805291E-01
  1.780661375471E-01  1.848720916696E-01  1.919381148911E-01  1.992741449713E-01
  2.043199145028E-01  2.094934182980E-01  2.147978899654E-01  2.202366449724E-01
  2.258130827179E-01  2.315306886570E-01  2.373930364796E-01  2.434037903438E-01
  2.495667071666E-01  2.558856389715E-01  2.623645352966E-01  2.690074456631E-01
  2.758185221062E-01  2.828020217703E-01  2.899623095700E-01  2.973038609185E-01
  3.048312645241E-01  3.125492252592E-01  3.204625671006E-01  3.285762361444E-01
  3.368953036980E-01  3.454249694493E-01  3.541705647172E-01  3.631375557833E-01
  3.723315473090E-01  3.817582858383E-01  3.914236633896E-01  4.013337211386E-01
  4.063824346670E-01  4.114946531938E-01  4.166711755137E-01  4.219128104687E-01
  4.272203770750E-01  4.325947046506E-01  4.380366329452E-01  4.435470122712E-01
  4.491267036365E-01  4.547765788792E-01  4.604975208039E-01  4.662904233193E-01
  4.721561915783E-01  4.780957421191E-01  4.841100030086E-01  4.901999139872E-01
  4.963664266159E-01  5.026105044250E-01  5.089331230641E-01  5.153352704554E-01
  5.218179469475E-01  5.283821654716E-01  5.350289517004E-01  5.417593442076E-01
  5.485743946308E-01  5.554751678356E-01  5.624627420816E-01  5.695382091917E-01
  5.767026747220E-01  5.839572581348E-01  5.913030929735E-01  5.987413270397E-01
  6.062731225727E-01  6.138996564308E-01  6.216221202755E-01  6.294417207574E-01
  6.373596797050E-01  6.453772343155E-01  6.534956373482E-01  6.617161573201E-01
  6.700400787040E-01  6.784687021297E-01  6.870033445867E-01  6.956453396303E-01
  7.043960375897E-01  7.132568057794E-01  7.222290287123E-01  7.313141083167E-01
  7.405134641545E-01  7.498285336440E-01  7.592607722837E-01  7.688116538800E-01
  7.784826707776E-01  7.882753340927E-01  7.981911739486E-01  8.082317397158E-01
  8.183986002528E-01  8.286933441524E-01  8.391175799893E-01  8.496729365716E-01
  8.603610631950E-01  8.711836299013E-01  8.821423277385E-01  8.932388690253E-01
  9.044749876190E-01  9.158524391859E-01  9.273730014760E-01  9.390384746006E-01
  9.508506813136E-01  9.628114672963E-01  9.749227014458E-01  9.871862761673E-01
  9.996041076691E-01  1.012178136263E+00  1.024910326666E+00  1.037802668308E+00
  1.050857175646E+00  1.064075888471E+00  1.077460872235E+00  1.091014218369E+00
  1.104738044611E+00  1.118634495335E+00  1.132705741892E+00  1.146953982942E+00
  1.161381444801E+00  1.175990381790E+00  1.190783076585E+00  1.205761840574E+00
  1.220929014221E+00  1.236286967426E+00  1.251838099902E+00  1.267584841544E+00
  1.283529652812E+00  1.299675025116E+00  1.316023481204E+00  1.332577575554E+00
  1.349339894778E+00  1.366313058021E+00  1.383499717377E+00  1.400902558293E+00
  1.418524300002E+00  1.436367695934E+00  1.454435534157E+00  1.472730637808E+00
  1.491255865533E+00  1.510014111938E+00  1.529008308036E+00  1.548241421709E+00
  1.567716458171E+00  1.587436460435E+00  1.607404509792E+00  1.627623726290E+00
  1.648097269223E+00  1.668828337623E+00  1.689820170763E+00  1.711076048659E+00
  1.732599292585E+00  1.754393265591E+00  1.776461373031E+00  1.798807063091E+00
  1.821433827331E+00  1.844345201228E+00  1.867544764731E+00  1.891036142820E+00
  1.914823006069E+00  1.938909071225E+00  1.963298101785E+00  1.987993908583E+00
  2.013000350391E+00  2.038321334515E+00  2.063960817411E+00  2.089922805300E+00
  2.116211354795E+00  2.142830573537E+00  2.169784620831E+00  2.197077708304E+00
  2.224714100554E+00  2.252698115825E+00  2.281034126676E+00  2.309726560666E+00
  2.338779901047E+00  2.368198687462E+00  2.397987516656E+00  2.428151043195E+00
  2.458693980191E+00  2.489621100039E+00  2.520937235166E+00  2.552647278781E+00
  2.584756185643E+00  2.617268972834E+00  2.650190720543E+00  2.683526572860E+00
  2.717281738580E+00  2.751461492017E+00  2.786071173825E+00  2.821116191839E+00
  2.856602021914E+00  2.892534208783E+00  2.928918366924E+00  2.965760181434E+00
  3.003065408923E+00  3.040839878408E+00  3.079089492226E+00  3.117820226959E+00
  3.157038134362E+00  3.196749342312E+00  3.236960055767E+00  3.277676557733E+00
  3.318905210246E+00  3.360652455366E+00  3.402924816187E+00  3.445728897849E+00
  3.489071388578E+00  3.532959060727E+00  3.577398771832E+00  3.622397465691E+00
  3.667962173439E+00  3.714100014656E+00  3.760818198473E+00  3.808124024701E+00
  3.856024884972E+00  3.904528263893E+00  3.953641740214E+00  4.003372988018E+00
  4.053729777913E+00  4.104719978248E+00  4.156351556348E+00  4.208632579751E+00
  4.261571217473E+00  4.315175741284E+00  4.369454527001E+00  4.424416055793E+00
  4.480068915512E+00  4.536421802030E+00  4.593483520600E+00  4.651262987232E+00
  4.709769230085E+00  4.769011390879E+00  4.828998726321E+00  4.889740609555E+00
  4.951246531624E+00  5.013526102953E+00  5.076589054853E+00  5.140445241036E+00
  5.205104639163E+00  5.270577352396E+00  5.336873610980E+00  5.404003773840E+00
  5.471978330200E+00  5.540807901223E+00  5.610503241670E+00  5.681075241579E+00
  5.752534927970E+00  5.824893466562E+00  5.898162163526E+00  5.972352467244E+00
  6.047475970103E+00  6.123544410301E+00  6.200569673689E+00  6.278563795619E+00
  6.357538962832E+00  6.437507515359E+00  6.518481948449E+00  6.600474914522E+00
  6.683499225145E+00  6.767567853035E+00  6.852693934088E+00  6.938890769426E+00
  7.026171827481E+00  7.114550746094E+00  7.204041334653E+00  7.294657576243E+00
  7.386413629837E+00  7.479323832504E+00  7.573402701653E+00  7.668664937299E+00
  7.765125424360E+00  7.862799234983E+00  7.961701630899E+00  8.061848065810E+00
  8.163254187799E+00  8.265935841779E+00  8.369909071969E+00  8.475190124395E+00
  8.581795449438E+00  8.689741704396E+00  8.799045756091E+00  8.909724683503E+00
  9.021795780440E+00  9.135276558239E+00  9.250184748503E+00  9.366538305869E+00
  9.484355410819E+00  9.603654472513E+00  9.724454131674E+00  9.846773263494E+00
  9.970630980586E+00  1.009604663597E+01  1.022303982610E+01  1.035163039391E+01
  1.048183843196E+01  1.061368428549E+01  1.074718855571E+01  1.088237210292E+01
  1.101925604983E+01  1.115786178484E+01  1.129821096536E+01  1.144032552125E+01
  1.158422765819E+01  1.172993986119E+01  1.187748489807E+01  1.202688582306E+01
  1.217816598033E+01  1.233134900773E+01  1.248645884042E+01  1.264351971463E+01
  1.280255617143E+01  1.296359306059E+01  1.312665554446E+01  1.329176910188E+01
  1.345895953219E+01  1.362825295921E+01  1.379967583541E+01  1.397325494595E+01
  1.414901741292E+01  1.432699069956E+01  1.450720261456E+01  1.468968131640E+01
  1.487445531775E+01  1.506155348993E+01  1.525100506739E+01  1.544283965234E+01
  1.563708721933E+01  1.583377811992E+01  1.603294308747E+01  1.623461324191E+01
  1.643882009462E+01  1.664559555333E+01  1.685497192713E+01  1.706698193150E+01
  1.728165869344E+01  1.749903575662E+01  1.771914708666E+01  1.794202707639E+01
  1.816771055128E+01  1.839623277482E+01  1.862762945407E+01  1.886193674524E+01
  1.909919125932E+01  1.933943006781E+01  1.958269070851E+01  1.982901119138E+01
</grid-data>
</grid>
<valence-charge total-charge="8">
<radfunc>
<data>
  1.226727364360E-01  1.227102769211E-01  1.228263335091E-01  1.230155776985E-01
  1.232829490775E-01  1.236306843197E-01  1.240675563132E-01  1.246043557118E-01
  1.252170375763E-01  1.259412062035E-01  1.267677383198E-01  1.276765285401E-01
  1.286359342929E-01  1.297796000399E-01  1.309333032161E-01  1.322747573712E-01
  1.335580822290E-01  1.350134946117E-01  1.366642434588E-01  1.385367684010E-01
  1.402145471744E-01  1.420707292184E-01  1.441245045054E-01  1.463971760811E-01
  1.489124034749E-01  1.509737088513E-01  1.531983399001E-01  1.555994669013E-01
  1.581913591856E-01  1.609894827274E-01  1.640106073053E-01  1.672729243008E-01
  1.707961763369E-01  1.746018001145E-01  1.787130839818E-01  1.831553419681E-01
  1.863142203731E-01  1.896411334886E-01  1.931453402267E-01  1.968366425888E-01
  2.007254207629E-01  2.048226707799E-01  2.091400449377E-01  2.136898952191E-01
  2.184853199464E-01  2.235402139388E-01  2.288693224582E-01  2.344882992519E-01
  2.404137690245E-01  2.466633946982E-01  2.532559498430E-01  2.602113966865E-01
  2.675509701400E-01  2.752972682999E-01  2.834743499097E-01  2.921078392877E-01
  3.012250392415E-01  3.108550525025E-01  3.210289122111E-01  3.317797219766E-01
  3.431428060038E-01  3.551558697323E-01  3.678591713532E-01  3.812957044554E-01
  3.883031637488E-01  3.955113918894E-01  4.029266205560E-01  4.105552907128E-01
  4.184040595854E-01  4.264798077831E-01  4.347896465545E-01  4.433409251643E-01
  4.521412383724E-01  4.611984339961E-01  4.705206205312E-01  4.801161748039E-01
  4.899937496192E-01  5.001622813703E-01  5.106309975616E-01  5.214094241971E-01
  5.325073929735E-01  5.439350482138E-01  5.557028534633E-01  5.678215976641E-01
  5.803024008080E-01  5.931567189607E-01  6.063963485309E-01  6.200334296461E-01
  6.340804484779E-01  6.485502383435E-01  6.634559793853E-01  6.788111966131E-01
  6.946297560661E-01  7.109258588241E-01  7.277140325729E-01  7.450091203920E-01
  7.628262664040E-01  7.811808978841E-01  8.000887033928E-01  8.195656064524E-01
  8.396277342413E-01  8.602913807379E-01  8.815729636931E-01  9.034889747636E-01
  9.260559220811E-01  9.492902644852E-01  9.732083365875E-01  9.978262637878E-01
  1.023159866306E+00  1.049224551248E+00  1.076035191678E+00  1.103605991636E+00
  1.131950335996E+00  1.161080624063E+00  1.191008085789E+00  1.221742579504E+00
  1.253292370090E+00  1.285663886610E+00  1.318861458457E+00  1.352887029266E+00
  1.387739847956E+00  1.423416136539E+00  1.459908734571E+00  1.497206720478E+00
  1.535295010406E+00  1.574153935713E+00  1.613758800801E+00  1.654079423630E+00
  1.695079662017E+00  1.736716929634E+00  1.778941706568E+00  1.821697050322E+00
  1.864918114200E+00  1.908531681210E+00  1.952455722808E+00  1.996598993030E+00
  2.040860669782E+00  2.085130056208E+00  2.129286356149E+00  2.173198538585E+00
  2.216725306674E+00  2.259715187408E+00  2.302006757948E+00  2.343429024341E+00
  2.383801967411E+00  2.422937269165E+00  2.460639230942E+00  2.496705891759E+00
  2.530930351794E+00  2.563102301758E+00  2.593009754045E+00  2.620440966056E+00
  2.645186540151E+00  2.667041678374E+00  2.685808563656E+00  2.701298832845E+00
  2.713336100924E+00  2.721758490370E+00  2.726421115202E+00  2.727198465987E+00
  2.723986640293E+00  2.716705362960E+00  2.705299742257E+00  2.689741711598E+00
  2.670031111958E+00  2.646196377443E+00  2.618294795331E+00  2.586412322184E+00
  2.550662948919E+00  2.511187619712E+00  2.468152721934E+00  2.421748176567E+00
  2.372185170475E+00  2.319693583129E+00  2.264519170792E+00  2.206920580437E+00
  2.147166273787E+00  2.085531448623E+00  2.022295049700E+00  1.957736965151E+00
  1.892135505710E+00  1.825765230832E+00  1.758894934378E+00  1.691785216117E+00
  1.624685712608E+00  1.557832867341E+00  1.491447906559E+00  1.425735266379E+00
  1.360881524391E+00  1.297054895650E+00  1.234405356581E+00  1.173065446587E+00
  1.113151737370E+00  1.054766557330E+00  9.979989467646E-01  9.429248412866E-01
  8.896077413816E-01  8.380991985395E-01  7.884393794814E-01  7.406576676715E-01
  6.947732843205E-01  6.507959286833E-01  6.087264298521E-01  5.685574045681E-01
  5.302739159457E-01  4.938541281248E-01  4.592699527080E-01  4.264876829428E-01
  3.954686123264E-01  3.661696342951E-01  3.385438206270E-01  3.125409761640E-01
  2.881081680028E-01  2.651902276654E-01  2.437302247503E-01  2.236699132210E-01
  2.049501408976E-01  1.875112499785E-01  1.712934051137E-01  1.562369511338E-01
  1.422827009670E-01  1.293721873785E-01  1.174479023247E-01  1.064535117763E-01
  9.633404316244E-02  8.703604688359E-02  7.850773332335E-02  7.069908678342E-02
  6.356195776625E-02  5.705013503074E-02  5.111939884483E-02  4.572755685325E-02
  4.083446396674E-02  3.640202766144E-02  3.239420005224E-02  2.877695807289E-02
  2.551827305795E-02  2.258807097846E-02  1.995818453459E-02  1.760229825526E-02
  1.549588769739E-02  1.361615377704E-02  1.194195320150E-02  1.045372590616E-02
  9.133420333830E-03  7.964417326902E-03  6.931453335774E-03  6.020543580309E-03
  5.218905735455E-03  4.514884648095E-03  3.897878529967E-03  3.358267011637E-03
  2.887341385237E-03  2.477237309376E-03  2.120870198454E-03  1.811873470792E-03
  1.544539785659E-03  1.313765358511E-03  1.114997406627E-03  9.441847437983E-04
  7.977315128554E-04  6.724540183790E-04  5.655405990295E-04  4.745144592372E-04
  3.971993634881E-04  3.316880828839E-04  2.763134728818E-04  2.296220529173E-04
  1.903499527716E-04  1.574010868504E-04  1.298274157647E-04  1.068111545391E-04
  8.764878819318E-05  7.173675815486E-05  5.855868675160E-05  4.767401172144E-05
  3.870790809363E-05  3.134238075944E-05  2.530841743059E-05  2.037909833396E-05
  1.636356579429E-05  1.310176370688E-05  1.045986370690E-05  8.326301522182E-06
  6.608353487771E-06  5.229189448936E-06  4.125344242989E-06  3.244555597831E-06
  2.543921593858E-06  1.988335791966E-06  1.549162727134E-06  1.203120703913E-06
  9.313427121088E-07  7.185898171954E-07  5.525945834679E-07  4.235149742161E-07
  3.234817599548E-07  2.462247721015E-07  1.867653854096E-07  1.411644183034E-07
  1.063162263553E-07  7.978115046234E-08  5.964968715927E-08  4.443279241997E-08
  3.297362973048E-08  2.437684450578E-08  1.795210522345E-08  1.316921088377E-08
  9.622537267553E-09  7.002992425158E-09  5.075985194326E-09  3.664188492577E-09
  2.634109789868E-09  1.885671687240E-09  1.344162152259E-09  9.540421147926E-10
  6.742024858812E-10  4.743472409659E-10  3.322474277522E-10  2.316657176875E-10
  1.607948613597E-10  1.110881782601E-10  7.638771448641E-11  5.227734924268E-11
  3.560508424402E-11  2.413196048505E-11  1.627528844180E-11  1.092177722560E-11
  7.292209700251E-12  4.843937543588E-12  3.200983630189E-12  2.104192794705E-12
  1.375865646121E-12  8.947997331003E-13  5.787693397566E-13  3.722932785549E-13
  2.381412685967E-13  1.514688457921E-13  9.578999848095E-14  6.022736098105E-14
  3.764545432074E-14  2.339074835894E-14  1.444627819813E-14  8.867784325463E-15
  5.409886489412E-15  3.279753750576E-15  1.975786986657E-15  1.182633334210E-15
  7.032926842972E-16  4.154918466608E-16  2.438334702387E-16  1.421320671475E-16
  8.228522024262E-17  4.730915769767E-17  2.700998519551E-17  1.531161084707E-17
  8.617791795845E-18  4.815156106696E-18  2.670694360408E-18  1.470270123206E-18
  8.033196146587E-19  4.355685971984E-19  2.343472349380E-19  1.250995621702E-19
  6.625238147534E-20  3.480594793451E-20  1.813709283667E-20  9.373451443546E-21
  4.804009807872E-21  2.441377863180E-21  1.230117442389E-21  6.144573050787E-22
  3.042446259839E-22  1.493110993836E-22  7.261904562685E-23  3.499845888398E-23
</data>
</radfunc>
</valence-charge>
<semilocal-potentials set="scalar_relativistic">
<slps n="5" l="s" rc="1.73259929258" flavor="Troullier-Martins">
<radfunc>
<data>
 -2.166521229635E+00 -2.166497196793E+00 -2.166422995578E+00 -2.166302313939E+00
 -2.166132469578E+00 -2.165912728182E+00 -2.165638503345E+00 -2.165304358322E+00
 -2.164926744965E+00 -2.164485577757E+00 -2.163988850806E+00 -2.163451016132E+00
 -2.162892641648E+00 -2.162239589376E+00 -2.161594562701E+00 -2.160861820540E+00
 -2.160178073339E+00 -2.159422891002E+00 -2.158592198145E+00 -2.157682862937E+00
 -2.156897587939E+00 -2.156060982192E+00 -2.155174326222E+00 -2.154240437952E+00
 -2.153264122386E+00 -2.152508348265E+00 -2.151737027954E+00 -2.150955622614E+00
 -2.150171025893E+00 -2.149391823793E+00 -2.148628595996E+00 -2.147894264819E+00
 -2.147204498834E+00 -2.146578179180E+00 -2.146037937698E+00 -2.145610777257E+00
 -2.145404439157E+00 -2.145273428225E+00 -2.145229958970E+00 -2.145287664518E+00
 -2.145461742194E+00 -2.145769112946E+00 -2.146228595790E+00 -2.146861098592E+00
 -2.147689826532E+00 -2.148740509716E+00 -2.150041651488E+00 -2.151624799041E+00
 -2.153524838029E+00 -2.155780312939E+00 -2.158433775012E+00 -2.161532159555E+00
 -2.165127194452E+00 -2.169275841695E+00 -2.174040773623E+00 -2.179490885455E+00
 -2.185701845496E+00 -2.192756684071E+00 -2.200746421880E+00 -2.209770737887E+00
 -2.219938676200E+00 -2.231369390482E+00 -2.244192923329E+00 -2.258551016646E+00
 -2.266353222111E+00 -2.274597947328E+00 -2.283306575513E+00 -2.292501380459E+00
 -2.302205553399E+00 -2.312443229656E+00 -2.323239514942E+00 -2.334620511140E+00
 -2.346613341403E+00 -2.359246174374E+00 -2.372548247301E+00 -2.386549887803E+00
 -2.401282534041E+00 -2.416778752971E+00 -2.433072256378E+00 -2.450197914323E+00
 -2.468191765619E+00 -2.487091024908E+00 -2.506934085878E+00 -2.527760520109E+00
 -2.549611071014E+00 -2.572527642259E+00 -2.596553280039E+00 -2.621732148508E+00
 -2.648109497620E+00 -2.675731622576E+00 -2.704645814021E+00 -2.734900298078E+00
 -2.766544165231E+00 -2.799627287032E+00 -2.834200219512E+00 -2.870314092162E+00
 -2.908020481224E+00 -2.947371266043E+00 -2.988418467119E+00 -3.031214064469E+00
 -3.075809794869E+00 -3.122256926474E+00 -3.170606009323E+00 -3.220906600170E+00
 -3.273206960109E+00 -3.327553723441E+00 -3.383991536266E+00 -3.442562663330E+00
 -3.503306561715E+00 -3.566259420067E+00 -3.631453662190E+00 -3.698917413994E+00
 -3.768673932993E+00 -3.840740999821E+00 -3.915130271531E+00 -3.991846596816E+00
 -4.070887293717E+00 -4.152241390907E+00 -4.235888834189E+00 -4.321799660549E+00
 -4.409933142816E+00 -4.500236908867E+00 -4.592646040230E+00 -4.687082155999E+00
 -4.783452489141E+00 -4.881648963501E+00 -4.981547281222E+00 -5.083006031722E+00
 -5.185865834966E+00 -5.289948533404E+00 -5.395056448679E+00 -5.500971720975E+00
 -5.607455750699E+00 -5.714248763974E+00 -5.821069525224E+00 -5.927615221776E+00
 -6.033561546998E+00 -6.138563009829E+00 -6.242253499649E+00 -6.344247136191E+00
 -6.444139434496E+00 -6.541508814720E+00 -6.635918485695E+00 -6.726918729586E+00
 -6.814049612480E+00 -6.896844142294E+00 -6.974831890808E+00 -7.047543090847E+00
 -7.114513212528E+00 -7.175288013934E+00 -7.229429051585E+00 -7.276519624513E+00
 -7.316171112672E+00 -7.348029655804E+00 -7.371783102864E+00 -7.387168144716E+00
 -7.393977524336E+00 -7.392067199214E+00 -7.381363310521E+00 -7.361868792863E+00
 -7.333669437536E+00 -7.296939201185E+00 -7.251944530726E+00 -7.199047454272E+00
 -7.138707166159E+00 -7.071479811455E+00 -6.998016150291E+00 -6.919056753504E+00
 -6.835424346139E+00 -6.748012871609E+00 -6.657772793299E+00 -6.565692078375E+00
 -6.472772216519E+00 -6.379998510399E+00 -6.288303732091E+00 -6.198524069022E+00
 -6.111346085564E+00 -6.027243206816E+00 -5.946399997547E+00 -5.868622272850E+00
 -5.793230848189E+00 -5.719235024044E+00 -5.646364905007E+00 -5.574587355437E+00
 -5.503870818934E+00 -5.434185377059E+00 -5.365502762249E+00 -5.297796370318E+00
 -5.231041262877E+00 -5.165214146976E+00 -5.100293315673E+00 -5.036258529022E+00
 -4.973090819060E+00 -4.910772222825E+00 -4.849285699072E+00 -4.788615025449E+00
 -4.728744742683E+00 -4.669660095864E+00 -4.611346980255E+00 -4.553791891325E+00
 -4.496981878744E+00 -4.440904504075E+00 -4.385547801913E+00 -4.330900244231E+00
 -4.276950707695E+00 -4.223688443735E+00 -4.171103051165E+00 -4.119184451141E+00
 -4.067922864294E+00 -4.017308789849E+00 -3.967332986570E+00 -3.917986455390E+00
 -3.869260423568E+00 -3.821146330259E+00 -3.773635813367E+00 -3.726720697569E+00
 -3.680392983412E+00 -3.634644837378E+00 -3.589468582840E+00 -3.544830904498E+00
 -3.500760431186E+00 -3.457246836158E+00 -3.414280746703E+00 -3.371853530289E+00
 -3.329957131281E+00 -3.288583946619E+00 -3.247726731394E+00 -3.207378527326E+00
 -3.167532608683E+00 -3.128182441499E+00 -3.089321652834E+00 -3.050944007649E+00
 -3.013043391403E+00 -2.975613796941E+00 -2.938649314597E+00 -2.902144124694E+00
 -2.866092491819E+00 -2.830488760421E+00 -2.795327351378E+00 -2.760602759284E+00
 -2.726309550258E+00 -2.692442360149E+00 -2.658995893008E+00 -2.625964919783E+00
 -2.593344277152E+00 -2.561128866479E+00 -2.529313652842E+00 -2.497893664128E+00
 -2.466863990171E+00 -2.436219781931E+00 -2.405956250691E+00 -2.376068667284E+00
 -2.346552361331E+00 -2.317402720503E+00 -2.288615189789E+00 -2.260185270778E+00
 -2.232108520950E+00 -2.204380552984E+00 -2.176997034063E+00 -2.149953685204E+00
 -2.123246280582E+00 -2.096870646870E+00 -2.070822662590E+00 -2.045098257465E+00
 -2.019693411784E+00 -1.994604155773E+00 -1.969826568976E+00 -1.945356779639E+00
 -1.921190964110E+00 -1.897325346237E+00 -1.873756196780E+00 -1.850479832825E+00
 -1.827492617215E+00 -1.804790957975E+00 -1.782371307752E+00 -1.760230163264E+00
 -1.738364064750E+00 -1.716769595428E+00 -1.695443380964E+00 -1.674382088942E+00
 -1.653582428345E+00 -1.633041149041E+00 -1.612755041272E+00 -1.592720935157E+00
 -1.572935700192E+00 -1.553396244764E+00 -1.534099515667E+00 -1.515042497624E+00
 -1.496222212816E+00 -1.477635720418E+00 -1.459280116139E+00 -1.441152531765E+00
 -1.423250134716E+00 -1.405570127599E+00 -1.388109747774E+00 -1.370866266919E+00
 -1.353836990607E+00 -1.337019257883E+00 -1.320410440847E+00 -1.304007944246E+00
 -1.287809205068E+00 -1.271811692140E+00 -1.256012905732E+00 -1.240410377170E+00
 -1.225001668446E+00 -1.209784371838E+00 -1.194756109537E+00 -1.179914533270E+00
 -1.165257323939E+00 -1.150782191252E+00 -1.136486873372E+00 -1.122369136559E+00
 -1.108426774820E+00 -1.094657609570E+00 -1.081059489284E+00 -1.067630289168E+00
 -1.054367910822E+00 -1.041270281914E+00 -1.028335355856E+00 -1.015561111484E+00
 -1.002945552741E+00 -9.904867083688E-01 -9.781826315957E-01 -9.660313998343E-01
 -9.540311143810E-01 -9.421799001188E-01 -9.304759052250E-01 -9.189173008808E-01
 -9.075022809867E-01 -8.962290618791E-01 -8.850958820526E-01 -8.741010018839E-01
 -8.632427033605E-01 -8.525192898120E-01 -8.419290856451E-01 -8.314704360817E-01
 -8.211417069000E-01 -8.109412841797E-01 -8.008675740496E-01 -7.909190024381E-01
 -7.810940148280E-01 -7.713910760127E-01 -7.618086698573E-01 -7.523452990606E-01
 -7.429994849220E-01 -7.337697671101E-01 -7.246547034344E-01 -7.156528696200E-01
 -7.067628590853E-01 -6.979832827217E-01 -6.893127686770E-01 -6.807499621407E-01
 -6.722935251326E-01 -6.639421362934E-01 -6.556944906786E-01 -6.475492995540E-01
 -6.395052901950E-01 -6.315612056873E-01 -6.237158047306E-01 -6.159678614445E-01
 -6.083161651773E-01 -6.007595203163E-01 -5.932967461015E-01 -5.859266764408E-01
 -5.786481597277E-01 -5.714600586616E-01 -5.643612500700E-01 -5.573506247327E-01
 -5.504270872091E-01 -5.435895556664E-01 -5.368369617108E-01 -5.301682502207E-01
 -5.235823791816E-01 -5.170783195233E-01 -5.106550549592E-01 -5.043115818274E-01
</data>
</radfunc>
</slps>
<slps n="5" l="p" rc="1.98799390858" flavor="Troullier-Martins">
<radfunc>
<data>
 -5.091178985000E+00 -5.091154948640E+00 -5.091080692392E+00 -5.090959777905E+00
 -5.090789302286E+00 -5.090568210601E+00 -5.090291441759E+00 -5.089952879610E+00
 -5.089568486802E+00 -5.089116920668E+00 -5.088605170972E+00 -5.088046944523E+00
 -5.087462648036E+00 -5.086772810698E+00 -5.086084206342E+00 -5.085292645457E+00
 -5.084544449042E+00 -5.083706524292E+00 -5.082769607785E+00 -5.081723910187E+00
 -5.080802181188E+00 -5.079798953767E+00 -5.078708847174E+00 -5.077526550197E+00
 -5.076246948519E+00 -5.075220511293E+00 -5.074134843812E+00 -5.072988370980E+00
 -5.071779820731E+00 -5.070508303692E+00 -5.069173405881E+00 -5.067775296206E+00
 -5.066314850779E+00 -5.064793796295E+00 -5.063214875002E+00 -5.061582034109E+00
 -5.060466103855E+00 -5.059330553412E+00 -5.058177740548E+00 -5.057010428540E+00
 -5.055831829572E+00 -5.054645652044E+00 -5.053456152107E+00 -5.052268189757E+00
 -5.051087289857E+00 -5.049919708451E+00 -5.048772504790E+00 -5.047653619486E+00
 -5.046571959239E+00 -5.045537488595E+00 -5.044561329234E+00 -5.043655867247E+00
 -5.042834868935E+00 -5.042113605591E+00 -5.041508987800E+00 -5.041039709685E+00
 -5.040726403572E+00 -5.040591805464E+00 -5.040660931633E+00 -5.040961266593E+00
 -5.041522962558E+00 -5.042379050349E+00 -5.043565661525E+00 -5.045122261255E+00
 -5.046052610803E+00 -5.047091891164E+00 -5.048246082656E+00 -5.049521420991E+00
 -5.050924405508E+00 -5.052461807462E+00 -5.054140678346E+00 -5.055968358236E+00
 -5.057952484109E+00 -5.060100998110E+00 -5.062422155736E+00 -5.064924533887E+00
 -5.067617038741E+00 -5.070508913403E+00 -5.073609745272E+00 -5.076929473059E+00
 -5.080478393395E+00 -5.084267166945E+00 -5.088306823948E+00 -5.092608769097E+00
 -5.097184785651E+00 -5.102047038672E+00 -5.107208077272E+00 -5.112680835739E+00
 -5.118478633396E+00 -5.124615173049E+00 -5.131104537851E+00 -5.137961186405E+00
 -5.145199945913E+00 -5.152836003158E+00 -5.160884893106E+00 -5.169362484865E+00
 -5.178284964758E+00 -5.187668816225E+00 -5.197530796259E+00 -5.207887908048E+00
 -5.218757369495E+00 -5.230156577252E+00 -5.242103065878E+00 -5.254614461730E+00
 -5.267708431140E+00 -5.281402622452E+00 -5.295714601422E+00 -5.310661779507E+00
 -5.326261334517E+00 -5.342530123099E+00 -5.359484584507E+00 -5.377140635077E+00
 -5.395513552850E+00 -5.414617851731E+00 -5.434467144616E+00 -5.455073994878E+00
 -5.476449755647E+00 -5.498604396304E+00 -5.521546315663E+00 -5.545282141321E+00
 -5.569816514732E+00 -5.595151861608E+00 -5.621288147319E+00 -5.648222617084E+00
 -5.675949520846E+00 -5.704459822856E+00 -5.733740896176E+00 -5.763776202488E+00
 -5.794544957832E+00 -5.826021785133E+00 -5.858176354709E+00 -5.890973014242E+00
 -5.924370410115E+00 -5.958321102404E+00 -5.992771176314E+00 -6.027659853356E+00
 -6.062919106118E+00 -6.098473281137E+00 -6.134238735032E+00 -6.170123489762E+00
 -6.206026913694E+00 -6.241839435898E+00 -6.277442301997E+00 -6.312707380711E+00
 -6.347497031133E+00 -6.381664041628E+00 -6.415051652097E+00 -6.447493672134E+00
 -6.478814708303E+00 -6.508830514404E+00 -6.537348478998E+00 -6.564168264770E+00
 -6.589082614323E+00 -6.611878336700E+00 -6.632337488386E+00 -6.650238761447E+00
 -6.665359090059E+00 -6.677475484590E+00 -6.686367099853E+00 -6.691817540841E+00
 -6.693617405318E+00 -6.691567057887E+00 -6.685479624655E+00 -6.675184191257E+00
 -6.660529179842E+00 -6.641385872587E+00 -6.617652040516E+00 -6.589255626761E+00
 -6.556158423095E+00 -6.518359667468E+00 -6.475899478643E+00 -6.428862031610E+00
 -6.377378364486E+00 -6.321628693784E+00 -6.261844100206E+00 -6.198307431038E+00
 -6.131353247418E+00 -6.061366624334E+00 -5.988780587412E+00 -5.914071941876E+00
 -5.837755214289E+00 -5.760374361160E+00 -5.682492046804E+00 -5.604675775370E+00
 -5.527480810013E+00 -5.451428909312E+00 -5.376982308241E+00 -5.304512083533E+00
 -5.234259926111E+00 -5.166292191598E+00 -5.100444942363E+00 -5.036258534847E+00
 -4.973090819060E+00 -4.910772222825E+00 -4.849285699072E+00 -4.788615025449E+00
 -4.728744742683E+00 -4.669660095864E+00 -4.611346980255E+00 -4.553791891325E+00
 -4.496981878744E+00 -4.440904504075E+00 -4.385547801913E+00 -4.330900244231E+00
 -4.276950707695E+00 -4.223688443735E+00 -4.171103051165E+00 -4.119184451141E+00
 -4.067922864294E+00 -4.017308789849E+00 -3.967332986570E+00 -3.917986455390E+00
 -3.869260423568E+00 -3.821146330259E+00 -3.773635813367E+00 -3.726720697569E+00
 -3.680392983412E+00 -3.634644837378E+00 -3.589468582840E+00 -3.544830904498E+00
 -3.500760431186E+00 -3.457246836158E+00 -3.414280746703E+00 -3.371853530289E+00
 -3.329957131281E+00 -3.288583946619E+00 -3.247726731394E+00 -3.207378527326E+00
 -3.167532608683E+00 -3.128182441499E+00 -3.089321652834E+00 -3.050944007649E+00