<?xml version="1.0" encoding="UTF-8" ?>
<psml version="1.1" energy_unit="hartree" length_unit="bohr"
 uuid="87620340-470b-11e8-5ed8-8e87ed7edbb4"
 xmlns="http://esl.cecam.org/PSML/ns/1.1">
<provenance creator="ONCVPSP-3.3.0+psml-3.3.0-73 (fully-relativistic)"
 date="2018-04-23">
<annotation action="semilocal-pseudopotential-generation"
 action-cont="projectors-generation" />
<input-file name="oncvpsp-input">
<![CDATA[# atsym z nc nv iexc psfile
C 6 1 2 4 both
# n l f
1 0 2.0
2 0 2.0
2 1 2.0
# lmax
1
# l rc ep ncon nbas qcut
0 1.2 0.0 4 7 9.0
1 1.25 0.0 4 8 9.4
# lloc lpopt rc5 dvloc0
4 5 1.2 0.0
# l nproj debl
0 2 2.0
1 2 1.5
# icmod fcfact
3 4 1.55
# epsh1 epsh2 depsh
-12.0 12.0 0.02
# rlmax drl
6.0 0.01
 0
]]>
</input-file>
</provenance>
<pseudo-atom-spec atomic-label="C" atomic-number="6" z-pseudo="4"
 flavor="Hamann&apos;s oncvpsp" relativity="dirac" spin-dft="no"
 core-corrections="yes">
<annotation pseudo-energy="-5.38884587204" />
<exchange-correlation>
<annotation oncvpsp-xc-code="4" oncvpsp-xc-type="GGA -- Perdew-Burke-Ernzerhof" />
<libxc-info number-of-functionals="2">
<functional name="Perdew, Burke &amp; Ernzerhof (GGA)" type="exchange" id="101" />
<functional name="Perdew, Burke &amp; Ernzerhof (GGA)" type="correlation"
 id="130" />
</libxc-info>
</exchange-correlation>
<valence-configuration total-valence-charge="4">
<shell n="2" l="s" occupation="2" />
<shell n="2" l="p" occupation="2" />
</valence-configuration>
</pseudo-atom-spec>
<grid npts="457">
<annotation type="sampled from oncvpsp log grid"
 recipe="r(i:1..N) = r1*exp(a*(i-1)) + r=0; resampled"
 recipe-cont="r1: scale; a: step" scale="0.833333333333E-04"
 step="0.119285708653E-01" delta="0.500000000000E-02" rmax="44.1860389071" />
<grid-data>
  0.000000000000E+00  5.045625992470E-03  1.007824195345E-02  1.511897001109E-02
  2.013049738999E-02  2.525132916864E-02  3.056134357623E-02  3.568774490113E-02
  4.069159781681E-02  4.584688868969E-02  5.104279894154E-02  5.615372632002E-02
  6.177641205049E-02  6.715622392913E-02  7.300453786039E-02  7.842110024149E-02
  8.423954377804E-02  8.941668576200E-02  9.491200134852E-02  1.007450446548E-01
  1.069365715431E-01  1.121626615380E-01  1.176441554255E-01  1.233935350321E-01
  1.294238921827E-01  1.357489585120E-01  1.423831367325E-01  1.475706852080E-01
  1.529472354136E-01  1.585196733870E-01  1.642951360498E-01  1.702810203484E-01
  1.764849927273E-01  1.829149989485E-01  1.895792742673E-01  1.964863539803E-01
  2.036450843570E-01  2.110646339690E-01  2.161605784915E-01  2.213795594986E-01
  2.267245475832E-01  2.321985850600E-01  2.378047876977E-01  2.435463464919E-01
  2.494265294816E-01  2.554486836094E-01  2.616162366264E-01  2.679326990435E-01
  2.744016661293E-01  2.810268199563E-01  2.878119314973E-01  2.947608627714E-01
  3.018775690421E-01  3.091661010691E-01  3.166306074133E-01  3.242753367987E-01
  3.321046405303E-01  3.401229749713E-01  3.483349040790E-01  3.567451020031E-01
  3.653583557459E-01  3.741795678870E-01  3.832137593741E-01  3.924660723804E-01
  4.019417732319E-01  4.116462554048E-01  4.215850425953E-01  4.266440631065E-01
  4.317637918638E-01  4.369449573661E-01  4.421882968545E-01  4.474945564168E-01
  4.528644910938E-01  4.582988649869E-01  4.637984513667E-01  4.693640327831E-01
  4.749964011765E-01  4.806963579907E-01  4.864647142866E-01  4.923022908580E-01
  4.982099183483E-01  5.041884373685E-01  5.102386986169E-01  5.163615630003E-01
  5.225579017563E-01  5.288285965774E-01  5.351745397363E-01  5.415966342131E-01
  5.480957938237E-01  5.546729433496E-01  5.613290186698E-01  5.680649668938E-01
  5.748817464965E-01  5.817803274545E-01  5.887616913839E-01  5.958268316806E-01
  6.029767536607E-01  6.102124747047E-01  6.175350244011E-01  6.249454446939E-01
  6.324447900302E-01  6.400341275106E-01  6.477145370407E-01  6.554871114852E-01
  6.633529568230E-01  6.713131923049E-01  6.793689506126E-01  6.875213780199E-01
  6.957716345562E-01  7.041208941708E-01  7.125703449009E-01  7.211211890397E-01
  7.297746433082E-01  7.385319390279E-01  7.473943222962E-01  7.563630541638E-01
  7.654394108137E-01  7.746246837435E-01  7.839201799484E-01  7.933272221078E-01
  8.028471487731E-01  8.124813145584E-01  8.222310903331E-01  8.320978634171E-01
  8.420830377781E-01  8.521880342314E-01  8.624142906422E-01  8.727632621299E-01
  8.832364212755E-01  8.938352583308E-01  9.045612814307E-01  9.154160168079E-01
  9.264010090096E-01  9.375178211177E-01  9.487680349711E-01  9.601532513908E-01
  9.716750904075E-01  9.833351914924E-01  9.951352137903E-01  1.007076836356E+00
  1.019161758392E+00  1.031391699493E+00  1.043768399887E+00  1.056293620685E+00
  1.068969144133E+00  1.081796773863E+00  1.094778335149E+00  1.107915675171E+00
  1.121210663273E+00  1.134665191233E+00  1.148281173527E+00  1.162060547610E+00
  1.176005274181E+00  1.190117337471E+00  1.204398745521E+00  1.218851530467E+00
  1.233477748833E+00  1.248279481819E+00  1.263258835601E+00  1.278417941628E+00
  1.293758956927E+00  1.309284064410E+00  1.324995473183E+00  1.340895418862E+00
  1.356986163888E+00  1.373269997855E+00  1.389749237829E+00  1.406426228683E+00
  1.423303343427E+00  1.440382983548E+00  1.457667579351E+00  1.475159590303E+00
  1.492861505386E+00  1.510775843451E+00  1.528905153572E+00  1.547252015415E+00
  1.565819039600E+00  1.584608868076E+00  1.603624174492E+00  1.622867664586E+00
  1.642342076561E+00  1.662050181480E+00  1.681994783658E+00  1.702178721062E+00
  1.722604865715E+00  1.743276124103E+00  1.764195437592E+00  1.785365782843E+00
  1.806790172238E+00  1.828471654304E+00  1.850413314156E+00  1.872618273926E+00
  1.895089693213E+00  1.917830769532E+00  1.940844738766E+00  1.964134875631E+00
  1.987704494139E+00  2.011556948068E+00  2.035695631445E+00  2.060123979023E+00
  2.084845466771E+00  2.109863612372E+00  2.135181975721E+00  2.160804159429E+00
  2.186733809342E+00  2.212974615054E+00  2.239530310435E+00  2.266404674160E+00
  2.293601530250E+00  2.321124748613E+00  2.348978245597E+00  2.377165984544E+00
  2.405691976358E+00  2.434560280075E+00  2.463775003436E+00  2.493340303477E+00
  2.523260387118E+00  2.553539511764E+00  2.584181985905E+00  2.615192169736E+00
  2.646574475773E+00  2.678333369482E+00  2.710473369916E+00  2.742999050355E+00
  2.775915038959E+00  2.809226019427E+00  2.842936731660E+00  2.877051972440E+00
  2.911576596109E+00  2.946515515262E+00  2.981873701445E+00  3.017656185863E+00
  3.053868060093E+00  3.090514476814E+00  3.127600650536E+00  3.165131858342E+00
  3.203113440642E+00  3.241550801930E+00  3.280449411553E+00  3.319814804492E+00
  3.359652582146E+00  3.399968413132E+00  3.440768034089E+00  3.482057250498E+00
  3.523841937504E+00  3.566128040754E+00  3.608921577243E+00  3.652228636170E+00
  3.696055379804E+00  3.740408044362E+00  3.785292940894E+00  3.830716456185E+00
  3.876685053659E+00  3.923205274303E+00  3.970283737595E+00  4.017927142446E+00
  4.066142268155E+00  4.114935975373E+00  4.164315207078E+00  4.214286989563E+00
  4.264858433437E+00  4.316036734639E+00  4.367829175454E+00  4.420243125560E+00
  4.473286043066E+00  4.526965475583E+00  4.581289061290E+00  4.636264530026E+00
  4.691899704386E+00  4.748202500839E+00  4.805180930849E+00  4.862843102019E+00
  4.921197219243E+00  4.980251585874E+00  5.040014604905E+00  5.100494780163E+00
  5.161700717525E+00  5.223641126136E+00  5.286324819649E+00  5.349760717485E+00
  5.413957846095E+00  5.478925340248E+00  5.544672444331E+00  5.611208513663E+00
  5.678543015827E+00  5.746685532017E+00  5.815645758401E+00  5.885433507502E+00
  5.956058709592E+00  6.027531414107E+00  6.099861791076E+00  6.173060132569E+00
  6.247136854160E+00  6.322102496410E+00  6.397967726367E+00  6.474743339083E+00
  6.552440259152E+00  6.631069542262E+00  6.710642376769E+00  6.791170085290E+00
  6.872664126314E+00  6.955136095830E+00  7.038597728980E+00  7.123060901727E+00
  7.208537632548E+00  7.295040084139E+00  7.382580565148E+00  7.471171531930E+00
  7.560825590313E+00  7.651555497397E+00  7.743374163366E+00  7.836294653326E+00
  7.930330189166E+00  8.025494151436E+00  8.121800081253E+00  8.219261682228E+00
  8.317892822415E+00  8.417707536284E+00  8.518720026720E+00  8.620944667040E+00
  8.724396003045E+00  8.829088755081E+00  8.935037820142E+00  9.042258273984E+00
  9.150765373272E+00  9.260574557751E+00  9.371701452444E+00  9.484161869873E+00
  9.597971812312E+00  9.713147474059E+00  9.829705243748E+00  9.947661706673E+00
  1.006703364715E+01  1.018783805092E+01  1.031009210753E+01  1.043381321282E+01
  1.055901897137E+01  1.068572719903E+01  1.081395592542E+01  1.094372339652E+01
  1.107504807728E+01  1.120794865421E+01  1.134244403806E+01  1.147855336652E+01
  1.161629600692E+01  1.175569155900E+01  1.189675985771E+01  1.203952097600E+01
  1.218399522771E+01  1.233020317044E+01  1.247816560849E+01  1.262790359579E+01
  1.277943843894E+01  1.293279170021E+01  1.308798520061E+01  1.324504102302E+01
  1.340398151529E+01  1.356482929348E+01  1.372760724500E+01  1.389233853194E+01
  1.405904659432E+01  1.422775515345E+01  1.439848821530E+01  1.457127007388E+01
  1.474612531477E+01  1.492307881854E+01  1.510215576436E+01  1.528338163354E+01
  1.546678221314E+01  1.565238359970E+01  1.584021220289E+01  1.603029474933E+01
  1.622265828632E+01  1.641733018576E+01  1.661433814799E+01  1.681371020576E+01
  1.701547472823E+01  1.721966042497E+01  1.742629635007E+01  1.763541190627E+01
  1.784703684914E+01  1.806120129133E+01  1.827793570683E+01  1.849727093531E+01
  1.871923818654E+01  1.894386904477E+01  1.917119547331E+01  1.940124981899E+01
  1.963406481682E+01  1.986967359462E+01  2.010810967776E+01  2.034940699389E+01
  2.059359987782E+01  2.084072307635E+01  2.109081175327E+01  2.134390149431E+01
  2.160002831224E+01  2.185922865198E+01  2.212153939581E+01  2.238699786856E+01
  2.265564184298E+01  2.292750954510E+01  2.320263965964E+01  2.348107133555E+01
  2.376284419158E+01  2.404799832188E+01  2.433657430174E+01  2.462861319336E+01
  2.492415655168E+01  2.522324643030E+01  2.552592538747E+01  2.583223649212E+01
  2.614222333002E+01  2.645593000998E+01  2.677340117010E+01  2.709468198414E+01
  2.741981816795E+01  2.774885598597E+01  2.808184225780E+01  2.841882436489E+01
  2.875985025727E+01  2.910496846036E+01  2.945422808188E+01  2.980767881887E+01
  3.016537096469E+01  3.052735541627E+01  3.089368368126E+01  3.126440788544E+01
  3.163958078006E+01  3.201925574942E+01  3.240348681842E+01  3.279232866024E+01
  3.318583660416E+01  3.358406664341E+01  3.398707544313E+01  3.439492034845E+01
  3.480765939263E+01  3.522535130534E+01  3.564805552101E+01  3.607583218726E+01
  3.650874217351E+01  3.694684707959E+01  3.739020924454E+01  3.783889175548E+01
  3.829295845654E+01  3.875247395802E+01  3.921750364552E+01  3.968811368927E+01
  4.016437105354E+01  4.064634350618E+01  4.113409962825E+01  4.162770882379E+01
  4.212724132968E+01  4.263276822563E+01  4.314436144434E+01  4.366209378167E+01
  4.418603890705E+01
</grid-data>
</grid>
<valence-charge total-charge="4" is-unscreening-charge="yes"
 rescaled-to-z-pseudo="no">
<radfunc>
<data npts="457">
  2.644983641805E-01  2.649621547501E-01  2.663483293156E-01  2.686601122582E-01
  2.718725546930E-01  2.760935183892E-01  2.814680512502E-01  2.876154340069E-01
  2.945186825247E-01  3.025571632709E-01  3.116026766549E-01  3.214162193112E-01
  3.332509868147E-01  3.455814246580E-01  3.600878567002E-01  3.745328421132E-01
  3.911137715196E-01  4.067784611630E-01  4.243278035471E-01  4.439742797946E-01
  4.659504785512E-01  4.853784865959E-01  5.065990376705E-01  5.297606522727E-01
  5.550205888718E-01  5.825445514015E-01  6.125061610009E-01  6.366855520039E-01
  6.624161484019E-01  6.897779677647E-01  7.188520984057E-01  7.497201515622E-01
  7.824636035753E-01  8.171630150838E-01  8.538971137155E-01  8.927417264650E-01
  9.337685479806E-01  9.770437314331E-01  1.007172432590E+00  1.038342175236E+00
  1.070566295830E+00  1.103855830775E+00  1.138219219254E+00  1.173661987278E+00
  1.210186413254E+00  1.247791175594E+00  1.286470983251E+00  1.326216190392E+00
  1.367012396842E+00  1.408840036347E+00  1.451673955230E+00  1.495482984510E+00
  1.540229509146E+00  1.585869038660E+00  1.632349784005E+00  1.679612246208E+00
  1.727588822927E+00  1.776203439708E+00  1.825371213300E+00  1.874998154919E+00
  1.924980921814E+00  1.975206625813E+00  2.025552707761E+00  2.075886886791E+00
  2.126067193242E+00  2.175942093703E+00  2.225350716085E+00  2.249827426377E+00
  2.274123181822E+00  2.298215413399E+00  2.322081051292E+00  2.345696545317E+00
  2.369037887286E+00  2.392080635292E+00  2.414799939934E+00  2.437170572479E+00
  2.459166954942E+00  2.480763192087E+00  2.501933105318E+00  2.522650268424E+00
  2.542888045173E+00  2.562619628686E+00  2.581818082573E+00  2.600456383776E+00
  2.618507467076E+00  2.635944271198E+00  2.652739786493E+00  2.668867104111E+00
  2.684299466630E+00  2.699010320099E+00  2.712973367417E+00  2.726162623027E+00
  2.738552468869E+00  2.750117711545E+00  2.760833640663E+00  2.770676088312E+00
  2.779621489643E+00  2.787646944499E+00  2.794730280070E+00  2.800850114513E+00
  2.805985921499E+00  2.810118095602E+00  2.813228018477E+00  2.815298125707E+00
  2.816311974213E+00  2.816254310068E+00  2.815111136544E+00  2.812869782147E+00
  2.809518968392E+00  2.805048876985E+00  2.799451216042E+00  2.792719284897E+00
  2.784848037013E+00  2.775834140414E+00  2.765676035003E+00  2.754373986078E+00
  2.741930133249E+00  2.728348533968E+00  2.713635200758E+00  2.697798131258E+00
  2.680847330124E+00  2.662794821845E+00  2.643654653547E+00  2.623442886880E+00
  2.602177578170E+00  2.579878746099E+00  2.556568326310E+00  2.532270112503E+00
  2.507009683785E+00  2.480814318270E+00  2.453712893190E+00  2.425735772113E+00
  2.396914680139E+00  2.367282568368E+00  2.336873469241E+00  2.305722344778E+00
  2.273864930090E+00  2.241337574898E+00  2.208177086122E+00  2.174420574860E+00
  2.140105311307E+00  2.105268591247E+00  2.069947617786E+00  2.034179401855E+00
  1.998000684752E+00  1.961447885558E+00  1.924557075658E+00  1.887363981797E+00
  1.849904018170E+00  1.812212346870E+00  1.774323964786E+00  1.736273813646E+00
  1.698096908482E+00  1.659828478374E+00  1.621504112019E+00  1.583159906590E+00
  1.544832634949E+00  1.506559911187E+00  1.468380267591E+00  1.430332994834E+00
  1.392457349551E+00  1.354791416532E+00  1.317371870792E+00  1.280234118178E+00
  1.243412159898E+00  1.206938566356E+00  1.170844439814E+00  1.135159383733E+00
  1.099911477263E+00  1.065127254781E+00  1.030831690421E+00  9.970481874952E-01
  9.637985726923E-01  9.311030949348E-01  8.989804287445E-01  8.674476819658E-01
  8.365204076747E-01  8.062126200975E-01  7.765368143472E-01  7.475039897808E-01
  7.191236767707E-01  6.914039666792E-01  6.643515448190E-01  6.379717261777E-01
  6.122684936845E-01  5.872445387927E-01  5.629013041537E-01  5.392390281568E-01
  5.162567911122E-01  4.939525628570E-01  4.723232515669E-01  4.513647535615E-01
  4.310720038960E-01  4.114390275378E-01  3.924589909338E-01  3.741242537810E-01
  3.564264208199E-01  3.393563934824E-01  3.229044212253E-01  3.070601524025E-01
  2.918126845273E-01  2.771506137904E-01  2.630620837080E-01  2.495348327830E-01
  2.365562410720E-01  2.241133755703E-01  2.121930343046E-01  2.007817890781E-01
  1.898660267857E-01  1.794319892409E-01  1.694658114602E-01  1.599535583618E-01
  1.508812598389E-01  1.422349441791E-01  1.340006698060E-01  1.261645553267E-01
  1.187128078743E-01  1.116317497409E-01  1.049078433025E-01  9.852771424170E-02
  9.247817307969E-02  8.674623503272E-02  8.131913821465E-02  7.618436020949E-02
  7.132963304299E-02  6.674295658607E-02  6.241261042645E-02  5.832716424862E-02
  5.447548676542E-02  5.084675324790E-02  4.743045170318E-02  4.421638775245E-02
  4.119468826430E-02  3.835580380063E-02  3.569050993430E-02  3.318990749973E-02
  3.084542183895E-02  2.864880110659E-02  2.659211369829E-02  2.466774486737E-02
  2.286839259445E-02  2.118706277494E-02  1.961706378803E-02  1.815200051060E-02
  1.678576783734E-02  1.551254376778E-02  1.432678211833E-02  1.322320491549E-02
  1.219679452444E-02  1.124278556428E-02  1.035665665883E-02  9.534122068831E-03
  8.771123248899E-03  8.063820369117E-03  7.408583838651E-03  6.801985865437E-03
  6.240792083155E-03  5.721953273707E-03  5.242597210549E-03  4.800020645400E-03
  4.391681458146E-03  4.015190987146E-03  3.668306554674E-03  3.348924199858E-03
  3.055071629265E-03  2.784901393216E-03  2.536684293966E-03  2.308803030111E-03
  2.099746079936E-03  1.908101824948E-03  1.732552913453E-03  1.571870862864E-03
  1.424910898331E-03  1.290607024336E-03  1.167967325091E-03  1.056069488860E-03
  9.540565507305E-04  8.611328478737E-04  7.765601809378E-04  6.996541748967E-04
  6.297808324618E-04  5.663532729968E-04  5.088286497866E-04  4.567052384749E-04
  4.095196894999E-04  3.668444374156E-04  3.282852600801E-04  2.934789808228E-04
  2.620913068503E-04  2.338147973281E-04  2.083669547620E-04  1.854884335085E-04
  1.649413594497E-04  1.465077550896E-04  1.299880645441E-04  1.151997731192E-04
  1.019761163892E-04  9.016487390369E-05  7.962724286282E-05  7.023678730860E-05
  6.187845857945E-05  5.444768297162E-05  4.784951273838E-05  4.199783674036E-05
  3.681464723453E-05  3.222935945801E-05  2.817818082406E-05  2.460352670267E-05
  2.145347990677E-05  1.868129114816E-05  1.624491786357E-05  1.410659894310E-05
  1.223246301913E-05  1.059216809469E-05  9.158570406793E-06  7.907420531240E-06
  6.817084843171E-06  5.868290549996E-06  5.043892612491E-06  4.328660964652E-06
  3.709086534019E-06  3.173204651684E-06  2.710434525063E-06  2.311433526972E-06
  1.967965131632E-06  1.672779401948E-06  1.419505003015E-06  1.202551784165E-06
  1.017023036165E-06  8.586365914791E-07  7.236539938029E-07  6.088170184672E-07
  5.112908778970E-07  4.286134960715E-07  3.586502830052E-07  2.995538846894E-07
  2.497284257770E-07  2.077978016372E-07  1.725776133223E-07  1.430503735545E-07
  1.183436441506E-07  9.771079541659E-08  8.051410607752E-08  6.620994832207E-08
  5.433582664615E-08  4.449906145083E-08  3.636692888749E-08  2.965808733281E-08
  2.413513821121E-08  1.959818475072E-08  1.587926675040E-08  1.283756263803E-08
  1.035526209289E-08  8.334023381590E-09  6.691939385406E-09  5.360945162924E-09
  4.284607865992E-09  3.416246981025E-09  2.717339269184E-09  2.156168491869E-09
  1.706685092913E-09  1.347545522699E-09  1.061304885505E-09  8.337401194858E-10
  6.532840251215E-10  5.105531855200E-10  3.979552102624E-10  3.093628198186E-10
  2.398441032725E-10  1.854398585246E-10  1.429802889178E-10  1.099345083484E-10
  8.428732096780E-11  6.443861182511E-11  4.912142944116E-11  3.733547656264E-11
  2.829326566345E-11  2.137665393033E-11  1.610185979403E-11  1.209138948988E-11
  9.051576370623E-12  6.754665368707E-12  5.024566746443E-12  3.725562832546E-12
  2.753383794890E-12  2.028177922903E-12  1.488992062560E-12  1.089451903209E-12
  7.943902090019E-13  5.772369754695E-13  4.179734244369E-13  3.015770404332E-13
  2.168119419082E-13  1.553041055228E-13  1.108348607860E-13  7.880252196179E-14
  0.000000000000E+00  0.000000000000E+00  0.000000000000E+00  0.000000000000E+00
  0.000000000000E+00  0.000000000000E+00  0.000000000000E+00  0.000000000000E+00
  0.000000000000E+00  0.000000000000E+00  0.000000000000E+00  0.000000000000E+00
  0.000000000000E+00  0.000000000000E+00  0.000000000000E+00  0.000000000000E+00
  0.000000000000E+00  0.000000000000E+00  0.000000000000E+00  0.000000000000E+00
  0.000000000000E+00  0.000000000000E+00  0.000000000000E+00  0.000000000000E+00
  0.000000000000E+00  0.000000000000E+00  0.000000000000E+00  0.000000000000E+00
  0.000000000000E+00  0.000000000000E+00  0.000000000000E+00  0.000000000000E+00
  0.000000000000E+00  0.000000000000E+00  0.000000000000E+00  0.000000000000E+00
  0.000000000000E+00  0.000000000000E+00  0.000000000000E+00  0.000000000000E+00
  0.000000000000E+00  0.000000000000E+00  0.000000000000E+00  0.000000000000E+00
  0.000000000000E+00  0.000000000000E+00  0.000000000000E+00  0.000000000000E+00
  0.000000000000E+00  0.000000000000E+00  0.000000000000E+00  0.000000000000E+00
  0.000000000000E+00  0.000000000000E+00  0.000000000000E+00  0.000000000000E+00
  0.000000000000E+00  0.000000000000E+00  0.000000000000E+00  0.000000000000E+00
  0.000000000000E+00
</data>
</radfunc>
</valence-charge>
<pseudocore-charge matching-radius="0.561329018670"
 number-of-continuous-derivatives="4">
<annotation model-charge-form="Teter function with specified parameters" />
<radfunc>
<data npts="290">
  1.096221695881E+01  1.096105223461E+01  1.095757075826E+01  1.095176337958E+01
  1.094369104189E+01  1.093308014860E+01  1.091956225061E+01  1.090409072019E+01
  1.088670436953E+01  1.086644214218E+01  1.084361993623E+01  1.081883395886E+01
  1.078890678152E+01  1.075768378400E+01  1.072089494809E+01  1.068420150167E+01
  1.064200726470E+01  1.060207027530E+01  1.055724172758E+01  1.050694640431E+01
  1.045054786496E+01  1.040056502527E+01  1.034583596142E+01  1.028593835495E+01
  1.022041825704E+01  1.014878900984E+01  1.007053045018E+01  1.000715400289E+01
  9.939491313821E+00  9.867285524851E+00  9.790269468913E+00  9.708166099272E+00
  9.620689100090E+00  9.527543707207E+00  9.428427770992E+00  9.323033096069E+00
  9.211047095626E+00  9.092154800755E+00  9.008900828947E+00  8.922344621743E+00
  8.832394427681E+00  8.738959955490E+00  8.641952895824E+00  8.541287493966E+00
  8.436881176027E+00  8.328655231023E+00  8.216535550965E+00  8.100453430843E+00
  7.980346429974E+00  7.856159295709E+00  7.727844949966E+00  7.595365538295E+00
  7.458693540403E+00  7.317812940091E+00  7.172720451412E+00  7.023426796593E+00
  6.869958029769E+00  6.712356898950E+00  6.550684236743E+00  6.385020368344E+00
  6.215466523038E+00  6.042146233002E+00  5.865206700580E+00  5.684820112439E+00
  5.501184876051E+00  5.314526750994E+00  5.125099844502E+00  5.029435465422E+00
  4.933187437693E+00  4.836395831787E+00  4.739102606033E+00  4.641351611982E+00
  4.543188594964E+00  4.444661189511E+00  4.345818909279E+00  4.246713131141E+00
  4.147397073085E+00  4.047925765576E+00  3.948356016030E+00  3.848746366063E+00
  3.749157041182E+00  3.649649892580E+00  3.550288330752E+00  3.451137250616E+00
  3.352262947874E+00  3.253733026370E+00  3.155616296224E+00  3.057982662545E+00
  2.960903004590E+00  2.864449045237E+00  2.768693210735E+00  2.673708480701E+00
  2.579568228407E+00  2.486346051476E+00  2.394115593145E+00  2.302950354338E+00
  2.212923496873E+00  2.124107638197E+00  2.036574638127E+00  1.950395378177E+00
  1.865639534137E+00  1.782375342657E+00  1.700669362708E+00  1.620586232880E+00
  1.542188425577E+00  1.465535999289E+00  1.390686350208E+00  1.317693964559E+00
  1.246610173121E+00  1.177482909512E+00  1.110356473875E+00  1.045271303718E+00
  9.822637537055E-01  9.213658862782E-01  8.626052750106E-01  8.060048226696E-01
  7.515825959389E-01  6.993516787831E-01  6.493200464024E-01  6.014904616888E-01
  5.558603960266E-01  5.124219761918E-01  4.711619589859E-01  4.320617350960E-01
  3.950973634982E-01  3.602396375198E-01  3.274541834420E-01  2.967015922667E-01
  2.679375849793E-01  2.411132113245E-01  2.161750817736E-01  1.930656319973E-01
  1.717234187768E-01  1.520834458939E-01  1.340775181304E-01  1.176346211005E-01
  1.026813242313E-01  8.914220380493E-02  7.694028259306E-02  6.599748225461E-02
  5.623508433709E-02  4.757419543497E-02  3.993621181804E-02  3.324327866014E-02
  2.741873888107E-02  2.238756656933E-02  1.807677998741E-02  1.441582928024E-02
  1.133695421502E-02  8.775507579617E-03  6.670240258120E-03  4.963544483659E-03
  3.601652337270E-03  2.534787210601E-03  1.717266670926E-03  1.107555947725E-03
  6.682720868870E-04  3.661396749047E-04  1.718999025444E-04  6.017559477036E-05
  9.295659306599E-06  1.083177272520E-06  2.061205292872E-05  5.593773334161E-05
  9.780798178374E-05  1.393600222706E-04  1.758105513018E-04  2.041451251579E-04
  2.228132703605E-04  2.314353300016E-04  2.305265544961E-04  2.212432831928E-04
  2.051552609209E-04  1.840472149392E-04  1.597518126114E-04  1.340150630705E-04
  1.083941555265E-04  8.418668332085E-05  6.238922753928E-05  4.368240672450E-05
  2.843877636827E-05  1.674941430439E-05  8.464679370252E-06  3.244495170038E-06
  6.135924662491E-07  1.743545658436E-08  8.750403706508E-07  2.625539969866E-06
  4.766115535715E-06  6.879762004047E-06  8.652220245976E-06  9.878249480448E-06
  1.045817052247E-05  1.038624051132E-05  9.732884323266E-06  8.623081427195E-06
  7.213278145800E-06  5.669068372902E-06  4.145580637715E-06  2.772060228138E-06
  1.641587850076E-06  8.062848712849E-07  2.777765604407E-07  3.217366743575E-08
  1.843641190261E-08  1.687382449676E-07  4.093682243800E-07  6.708007180930E-07
  8.958010382214E-07  1.044790400848E-06  1.098115431730E-06  1.055301307039E-06
  9.317582079540E-07  7.537094954708E-07  5.522814891304E-07  3.577216608149E-07
  1.945977570553E-07  7.859844152197E-08  1.524701445810E-08  0.000000000000E+00
  0.000000000000E+00  0.000000000000E+00  0.000000000000E+00  0.000000000000E+00
  0.000000000000E+00  0.000000000000E+00  0.000000000000E+00  0.000000000000E+00
  0.000000000000E+00  0.000000000000E+00  0.000000000000E+00  0.000000000000E+00
  0.000000000000E+00  0.000000000000E+00  0.000000000000E+00  0.000000000000E+00
  0.000000000000E+00  0.000000000000E+00  0.000000000000E+00  0.000000000000E+00
  0.000000000000E+00  0.000000000000E+00  0.000000000000E+00  0.000000000000E+00
  0.000000000000E+00  0.000000000000E+00  0.000000000000E+00  0.000000000000E+00
  0.000000000000E+00  0.000000000000E+00  0.000000000000E+00  0.000000000000E+00
  0.000000000000E+00  0.000000000000E+00  0.000000000000E+00  0.000000000000E+00
  0.000000000000E+00  0.000000000000E+00  0.000000000000E+00  0.000000000000E+00
  0.000000000000E+00  0.000000000000E+00  0.000000000000E+00  0.000000000000E+00
  0.000000000000E+00  0.000000000000E+00  0.000000000000E+00  0.000000000000E+00
  0.000000000000E+00  0.000000000000E+00  0.000000000000E+00  0.000000000000E+00
  0.000000000000E+00  0.000000000000E+00  0.000000000000E+00  0.000000000000E+00
  0.000000000000E+00  0.000000000000E+00  0.000000000000E+00  0.000000000000E+00
  0.000000000000E+00  0.000000000000E+00  0.000000000000E+00  0.000000000000E+00
  0.000000000000E+00  0.000000000000E+00  0.000000000000E+00  0.000000000000E+00
  0.000000000000E+00  0.000000000000E+00
</data>
</radfunc>
</pseudocore-charge>
<semilocal-potentials set="scalar_relativistic">
<slps n="2" l="s" rc="1.20439874552">
<radfunc>
<data npts="290">
  1.461726372994E+01  1.461223632298E+01  1.459721750533E+01  1.457219356466E+01
  1.453746929263E+01  1.449192978899E+01  1.443408571323E+01  1.436811677558E+01
  1.429428075983E+01  1.420862628589E+01  1.411265519734E+01  1.400902751205E+01
  1.388473183977E+01  1.375600868491E+01  1.360557562280E+01  1.345684873886E+01
  1.328742886048E+01  1.312863029531E+01  1.295216031014E+01  1.275637480887E+01
  1.253955654697E+01  1.234976846442E+01  1.214446231735E+01  1.192271191727E+01
  1.168360025486E+01  1.142623381699E+01  1.114975922351E+01  1.092938294692E+01
  1.069750347330E+01  1.045384526382E+01  1.019816955037E+01  9.930280501310E+00
  9.650031626404E+00  9.357332341306E+00  9.052154594901E+00  8.734539446689E+00
  8.404603465719E+00  8.062544808674E+00  7.827908053430E+00  7.588115486029E+00
  7.343293016392E+00  7.093585833826E+00  6.839158807949E+00  6.580196791259E+00
  6.316904814913E+00  6.049508170095E+00  5.778252368253E+00  5.503402974668E+00
  5.225245311087E+00  4.944084024673E+00  4.660242522124E+00  4.374062269547E+00
  4.085901960588E+00  3.796136557129E+00  3.505156208930E+00  3.213365060395E+00
  2.921179954641E+00  2.629029046752E+00  2.337350339727E+00  2.046590158185E+00
  1.757201575920E+00  1.469642814519E+00  1.184375630702E+00  9.018637103780E-01
  6.225710872573E-01  3.469606032416E-01  7.549242690771E-02 -5.854557257102E-02
 -1.913773551688E-01 -3.229467650307E-01 -4.531980614021E-01 -5.820759549530E-01
 -7.095256417116E-01 -8.354928358144E-01 -9.599238002553E-01 -1.082765376020E+00
 -1.203965009496E+00 -1.323470778174E+00 -1.441231414770E+00 -1.557196329723E+00
 -1.671315632253E+00 -1.783540149992E+00 -1.893821447346E+00 -2.002111842738E+00
 -2.108364424808E+00 -2.212533067821E+00 -2.314572446419E+00 -2.414438049947E+00
 -2.512086196537E+00 -2.607474047248E+00 -2.700559620499E+00 -2.791301807048E+00
 -2.879660385894E+00 -2.965596041382E+00 -3.049070381905E+00 -3.130045960567E+00
 -3.208486298276E+00 -3.284355909723E+00 -3.357620332737E+00 -3.428246161633E+00
 -3.496201085132E+00 -3.561453929586E+00 -3.623974708191E+00 -3.683734677101E+00
 -3.740706399285E+00 -3.794863817084E+00 -3.846182334574E+00 -3.894638910780E+00
 -3.940212164887E+00 -3.982882494654E+00 -4.022632209162E+00 -4.059445677026E+00
 -4.093309491099E+00 -4.124212650551E+00 -4.152146761017E+00 -4.177106253160E+00
 -4.199088619762E+00 -4.218094670897E+00 -4.234128806365E+00 -4.247199303913E+00
 -4.257318621252E+00 -4.264503709212E+00 -4.268776332742E+00 -4.270163395925E+00
 -4.268697266572E+00 -4.264416095574E+00 -4.257364125755E+00 -4.247591984845E+00
 -4.235156956994E+00 -4.220123227298E+00 -4.202562093876E+00 -4.182552142155E+00
 -4.160179376149E+00 -4.135537301498E+00 -4.108726954995E+00 -4.079856874938E+00
 -4.049043006106E+00 -4.016408532299E+00 -3.982083628202E+00 -3.946205120908E+00
 -3.908916049731E+00 -3.870365111112E+00 -3.830705973502E+00 -3.790096445211E+00
 -3.748697476626E+00 -3.706671976852E+00 -3.664183424208E+00 -3.621394250037E+00
 -3.578463976523E+00 -3.535547091594E+00 -3.492790648030E+00 -3.450331579654E+00
 -3.408293735240E+00 -3.366784621313E+00 -3.325892110001E+00 -3.285610399661E+00
 -3.245882390162E+00 -3.206722418693E+00 -3.168133236793E+00 -3.130092741099E+00
 -3.092560594309E+00 -3.055527474382E+00 -3.018995706250E+00 -2.982954132352E+00