<?xml version="1.0" encoding="UTF-8" ?>
<psml version="1.1" energy_unit="hartree" length_unit="bohr"
 uuid="7959f4b0-6e35-11e7-5103-1ac6af5e871e"
 xmlns="http://esl.cecam.org/PSML/ns/1.1">
<provenance creator="ATM4.2.6" date="21-JUL-17">
<annotation action="semilocal-pseudopotential-generation" />
<input-file name="INP">
<![CDATA[#  PS generation with core corrections
#  GGA (Perdew-Burke-Ernzerhof) XC , spin-polarized
#  3d7 4s1 configuration
#
   pe   Fe, GGA, rcore=0.70
        tm2      3.0
 n=Fe c=pbs
       0.0       0.0       0.0       0.0       0.0       0.0
    5    4
    4    0      1.00      0.00    # 4s1
    4    1      0.00      0.00    # 4p0
    3    2      4.00      3.00    # 3d(4,3)
    4    3      0.00      0.00    # 4f0
      2.00      2.00      2.00      2.00      0.00      0.70
#                                                        |
#                                       Radius of pseudocore
]]>
</input-file>
</provenance>
<pseudo-atom-spec atomic-label="Fe" atomic-number="26" z-pseudo="8"
 flavor="Troullier-Martins" relativity="no" spin-dft="yes"
 core-corrections="yes">
<annotation pseudo-energy="-28.4717424764" />
<exchange-correlation>
<annotation atom-xc-code="pb" siesta-xc-type="GGA" siesta-xc-authors="PBE" />
<libxc-info number-of-functionals="2">
<functional name="XC_GGA_X_PBE" type="XC_EXCHANGE" id="101" />
<functional name="XC_GGA_C_PBE" type="XC_CORRELATION" id="130" />
</libxc-info>
</exchange-correlation>
<valence-configuration total-valence-charge="8">
<shell n="4" l="s" occupation="1" occupation-down="1" occupation-up="0" />
<shell n="3" l="d" occupation="7" occupation-down="4" occupation-up="3" />
</valence-configuration>
</pseudo-atom-spec>
<grid npts="376">
<annotation type="sampled-log-atom"
 recipe="r(i:1..N) = a*(exp(b*(i-1))-1); resampled"
 recipe-cont="a: scale; b: step" scale="0.953366221795E-04"
 step="0.125000000000E-01" delta="0.500000000000E-02" rmax="20" />
<grid-data>
  0.000000000000E+00  5.045206506591E-03  1.012785411201E-02  1.515587180378E-02
  2.023590584959E-02  2.536594017362E-02  3.061682563780E-02  3.603593502449E-02
  4.136174610415E-02  4.688169253783E-02  5.247535342297E-02  5.800426115888E-02
  6.331701994321E-02  6.911558942121E-02  7.450602362804E-02  8.031628722597E-02
  8.550239139676E-02  9.102297054994E-02  9.689959646852E-02  1.031552321960E-01
  1.084490020607E-01  1.140141893104E-01  1.198647098119E-01  1.260151929139E-01
  1.324810180278E-01  1.375470253048E-01  1.428066148371E-01  1.482671837892E-01
  1.539364119863E-01  1.598222727146E-01  1.659330439359E-01  1.722773199293E-01
  1.788640233784E-01  1.857024179205E-01  1.928021211749E-01  2.001731182694E-01
  2.052429383422E-01  2.104411015212E-01  2.157708568276E-01  2.212355355319E-01
  2.268385532362E-01  2.325834120091E-01  2.384737025742E-01  2.445131065548E-01
  2.507053987751E-01  2.570544496193E-01  2.635642274509E-01  2.702388010928E-01
  2.770823423709E-01  2.840991287213E-01  2.912935458639E-01  2.986700905435E-01
  3.062333733407E-01  3.139881215535E-01  3.219391821519E-01  3.300915248077E-01
  3.384502450004E-01  3.470205672022E-01  3.558078481435E-01  3.648175801608E-01
  3.740553946301E-01  3.835270654861E-01  3.932385128313E-01  4.031958066366E-01
  4.082685847388E-01  4.134051705346E-01  4.186063666259E-01  4.238729857102E-01
  4.292058507074E-01  4.346057948886E-01  4.400736620059E-01  4.456103064249E-01
  4.512165932573E-01  4.568933984970E-01  4.626416091563E-01  4.684621234049E-01
  4.743558507098E-01  4.803237119781E-01  4.863666397001E-01  4.924855780956E-01
  4.986814832612E-01  5.049553233197E-01  5.113080785714E-01  5.177407416471E-01
  5.242543176636E-01  5.308498243804E-01  5.375282923588E-01  5.442907651230E-01
  5.511382993232E-01  5.580719649005E-01  5.650928452543E-01  5.722020374114E-01
  5.794006521975E-01  5.866898144109E-01  5.940706629979E-01  6.015443512312E-01
  6.091120468898E-01  6.167749324415E-01  6.245342052278E-01  6.323910776508E-01
  6.403467773628E-01  6.484025474582E-01  6.565596466673E-01  6.648193495535E-01
  6.731829467122E-01  6.816517449725E-01  6.902270676013E-01  6.989102545102E-01
  7.077026624649E-01  7.166056652970E-01  7.256206541188E-01  7.347490375406E-01
  7.439922418909E-01  7.533517114392E-01  7.628289086217E-01  7.724253142697E-01
  7.821424278410E-01  7.919817676546E-01  8.019448711272E-01  8.120332950140E-01
  8.222486156518E-01  8.325924292052E-01  8.430663519161E-01  8.536720203563E-01
  8.644110916831E-01  8.752852438981E-01  8.862961761098E-01  8.974456087987E-01
  9.087352840864E-01  9.201669660076E-01  9.317424407859E-01  9.434635171128E-01
  9.553320264302E-01  9.673498232170E-01  9.795187852782E-01  9.918408140391E-01
  1.004317834842E+00  1.016951797246E+00  1.029744675334E+00  1.042698468019E+00
  1.055815199357E+00  1.069096918865E+00  1.082545701838E+00  1.096163649677E+00
  1.109952890212E+00  1.123915578041E+00  1.138053894862E+00  1.152370049816E+00
  1.166866279832E+00  1.181544849974E+00  1.196408053800E+00  1.211458213714E+00
  1.226697681336E+00  1.242128837863E+00  1.257754094444E+00  1.273575892558E+00
  1.289596704393E+00  1.305819033233E+00  1.322245413851E+00  1.338878412901E+00
  1.355720629324E+00  1.372774694749E+00  1.390043273910E+00  1.407529065058E+00
  1.425234800382E+00  1.443163246439E+00  1.461317204587E+00  1.479699511418E+00
  1.498313039204E+00  1.517160696347E+00  1.536245427833E+00  1.555570215688E+00
  1.575138079451E+00  1.594952076641E+00  1.615015303233E+00  1.635330894149E+00
  1.655902023742E+00  1.676731906290E+00  1.697823796507E+00  1.719180990043E+00
  1.740806824003E+00  1.762704677468E+00  1.784877972021E+00  1.807330172285E+00
  1.830064786462E+00  1.853085366882E+00  1.876395510557E+00  1.899998859744E+00
  1.923899102516E+00  1.948099973333E+00  1.972605253631E+00  1.997418772410E+00
  2.022544406832E+00  2.047986082829E+00  2.073747775715E+00  2.099833510806E+00
  2.126247364053E+00  2.152993462672E+00  2.180075985796E+00  2.207499165126E+00
  2.235267285587E+00  2.263384686007E+00  2.291855759784E+00  2.320684955584E+00
  2.349876778026E+00  2.379435788392E+00  2.409366605337E+00  2.439673905613E+00
  2.470362424797E+00  2.501436958032E+00  2.532902360778E+00  2.564763549567E+00
  2.597025502776E+00  2.629693261399E+00  2.662771929842E+00  2.696266676712E+00
  2.730182735633E+00  2.764525406057E+00  2.799300054097E+00  2.834512113362E+00
  2.870167085809E+00  2.906270542598E+00  2.942828124969E+00  2.979845545119E+00
  3.017328587094E+00  3.055283107696E+00  3.093715037396E+00  3.132630381261E+00
  3.172035219894E+00  3.211935710379E+00  3.252338087251E+00  3.293248663462E+00
  3.334673831374E+00  3.376620063753E+00  3.419093914783E+00  3.462102021090E+00
  3.505651102778E+00  3.549747964480E+00  3.594399496420E+00  3.639612675490E+00
  3.685394566343E+00  3.731752322491E+00  3.778693187428E+00  3.826224495760E+00
  3.874353674350E+00  3.923088243482E+00  3.972435818029E+00  4.022404108651E+00
  4.073000922996E+00  4.124234166918E+00  4.176111845716E+00  4.228642065383E+00
  4.281833033872E+00  4.335693062380E+00  4.390230566648E+00  4.445454068270E+00
  4.501372196031E+00  4.557993687252E+00  4.615327389156E+00  4.673382260252E+00
  4.732167371731E+00  4.791691908885E+00  4.851965172546E+00  4.912996580533E+00
  4.974795669127E+00  5.037372094563E+00  5.100735634534E+00  5.164896189721E+00
  5.229863785343E+00  5.295648572719E+00  5.362260830854E+00  5.429710968050E+00
  5.498009523528E+00  5.567167169077E+00  5.637194710719E+00  5.708103090400E+00
  5.779903387699E+00  5.852606821557E+00  5.926224752036E+00  6.000768682085E+00
  6.076250259347E+00  6.152681277970E+00  6.230073680457E+00  6.308439559528E+00
  6.387791160012E+00  6.468140880756E+00  6.549501276570E+00  6.631885060180E+00
  6.715305104220E+00  6.799774443241E+00  6.885306275749E+00  6.971913966268E+00
  7.059611047426E+00  7.148411222068E+00  7.238328365405E+00  7.329376527171E+00
  7.421569933828E+00  7.514922990784E+00  7.609450284642E+00  7.705166585485E+00
  7.802086849180E+00  7.900226219716E+00  7.999600031567E+00  8.100223812096E+00
  8.202113283972E+00  8.305284367632E+00  8.409753183769E+00  8.515536055847E+00
  8.622649512655E+00  8.731110290889E+00  8.840935337765E+00  8.952141813673E+00
  9.064747094848E+00  9.178768776096E+00  9.294224673535E+00  9.411132827386E+00
  9.529511504785E+00  9.649379202641E+00  9.770754650526E+00  9.893656813600E+00
  1.001810489558E+01  1.014411834172E+01  1.027171684189E+01  1.040092033361E+01
  1.053174900520E+01  1.066422329888E+01  1.079836391405E+01  1.093419181045E+01
  1.107172821146E+01  1.121099460743E+01  1.135201275901E+01  1.149480470057E+01
  1.163939274365E+01  1.178579948043E+01  1.193404778725E+01  1.208416082821E+01
  1.223616205879E+01  1.239007522947E+01  1.254592438952E+01  1.270373389067E+01
  1.286352839099E+01  1.302533285868E+01  1.318917257603E+01  1.335507314333E+01
  1.352306048287E+01  1.369316084302E+01  1.386540080231E+01  1.403980727358E+01
  1.421640750820E+01  1.439522910031E+01  1.457629999115E+01  1.475964847342E+01
  1.494530319569E+01  1.513329316688E+01  1.532364776082E+01  1.551639672079E+01
  1.571157016422E+01  1.590919858734E+01  1.610931287001E+01  1.631194428048E+01
  1.651712448034E+01  1.672488552939E+01  1.693525989073E+01  1.714828043578E+01
  1.736398044944E+01  1.758239363526E+01  1.780355412076E+01  1.802749646270E+01
  1.825425565254E+01  1.848386712187E+01  1.871636674793E+01  1.895179085927E+01
  1.919017624139E+01  1.943156014249E+01  1.967598027928E+01  1.992347484293E+01
</grid-data>
</grid>
<valence-charge total-charge="8" is-unscreening-charge="yes"
 rescaled-to-z-pseudo="no">
<radfunc>
<data>
  1.491147225989E-02  1.491197418350E-02  1.491575661953E-02  1.492940981663E-02
  1.496446183985E-02  1.503762867263E-02  1.517363752537E-02  1.540774298494E-02
  1.576479841802E-02  1.630967148615E-02  1.709316170507E-02  1.815199621910E-02
  1.949229520014E-02  2.138584442056E-02  2.361877730335E-02  2.661814723760E-02
  2.988844719667E-02  3.406569632081E-02  3.939794716120E-02  4.619946866392E-02
  5.296232071741E-02  6.116817431955E-02  7.111807965700E-02  8.317348790754E-02
  9.776752815288E-02  1.106869802018E-01  1.255782546592E-01  1.427314782125E-01
  1.624767489722E-01  1.851889567615E-01  2.112930060242E-01  2.412694241893E-01
  2.756603190496E-01  3.150756235189E-01  3.601995337964E-01  4.117970061138E-01
  4.502087571696E-01  4.921496685692E-01  5.379141044992E-01  5.878161974540E-01
  6.421903765274E-01  7.013917538713E-01  7.657963331755E-01  8.358009988430E-01
  9.118232389477E-01  9.943005491219E-01  1.083689458275E+00  1.180464110603E+00
  1.285114331828E+00  1.398143101186E+00  1.520063344611E+00  1.651393959068E+00
  1.792654973518E+00  1.944361748926E+00  2.107018118575E+00  2.281108371426E+00
  2.467087985975E+00  2.665373030956E+00  2.876328163150E+00  3.100253172574E+00
  3.337368052490E+00  3.587796607140E+00  3.851548654994E+00  4.128500940593E+00
  4.271847315668E+00  4.418376934752E+00  4.568027827521E+00  4.720725781436E+00
  4.876383662715E+00  5.034900740317E+00  5.196162017555E+00  5.360037576453E+00
  5.526381940437E+00  5.695033461452E+00  5.865813738099E+00  6.038527071890E+00
  6.212959969218E+00  6.388880697086E+00  6.566038901143E+00  6.744165294960E+00
  6.922971429866E+00  7.102149555013E+00  7.281372577586E+00  7.460294133254E+00
  7.638548777084E+00  7.815752305097E+00  7.991502216554E+00  8.165378326768E+00
  8.336943539864E+00  8.505744790306E+00  8.671314161291E+00  8.833170187155E+00
  8.990819345810E+00  9.143757745873E+00  9.291473011576E+00  9.433446366766E+00
  9.569154917262E+00  9.698074128607E+00  9.819680493780E+00  9.933454382769E+00
  1.003888306305E+01  1.013546387696E+01  1.022270755891E+01  1.030014167191E+01
  1.036731413979E+01  1.042379684810E+01  1.046918928333E+01  1.050312217712E+01
  1.052526111898E+01  1.053531009866E+01  1.053301493634E+01  1.051816655741E+01
  1.049060406750E+01  1.045021758167E+01  1.039695076226E+01  1.033080302015E+01
  1.025183133555E+01  1.016015165683E+01  1.005593983872E+01  9.939432085549E+00
  9.810924869836E+00  9.670774302417E+00  9.519394936963E+00  9.357257999046E+00
  9.184889037994E+00  9.002865008331E+00  8.811810796578E+00  8.612395218368E+00
  8.405326520035E+00  8.191347427880E+00  7.971229796950E+00  7.745768919173E+00
  7.515777557900E+00  7.282079782025E+00  7.045504677769E+00  6.806880019694E+00
  6.567025984477E+00  6.326748991258E+00  6.086835750983E+00  5.848047604029E+00
  5.611115220610E+00  5.376733732062E+00  5.145558353251E+00  4.918200547256E+00
  4.695224773276E+00  4.477145847796E+00  4.264426937553E+00  4.057478191204E+00
  3.856656005001E+00  3.662262906645E+00  3.474548030972E+00  3.293708151606E+00
  3.119889222683E+00  2.953188386597E+00  2.793656378619E+00  2.641300277583E+00
  2.496086535746E+00  2.357944224333E+00  2.226768431524E+00  2.102423751809E+00
  1.984747808996E+00  1.873554759687E+00  1.768638729403E+00  1.669777139645E+00
  1.576733890707E+00  1.489262371920E+00  1.407108277875E+00  1.330012215976E+00
  1.257712097155E+00  1.189945307618E+00  1.126450664964E+00  1.066970166775E+00
  1.011250543720E+00  9.590446322549E-01  9.101125840528E-01  8.642229302690E-01
  8.211535185728E-01  7.806923395028E-01  7.426382560863E-01  7.068016467940E-01
  6.730049668141E-01  6.410832264296E-01  6.108843781336E-01  5.822695962972E-01
  5.551134250688E-01  5.293037621675E-01  5.047416393384E-01  4.813407500900E-01
  4.590266807581E-01  4.377357987757E-01  4.174135767494E-01  3.980129610695E-01
  3.794915063329E-01  3.618091644807E-01  3.449275827204E-01  3.288100474902E-01
  3.134214077811E-01  2.987280394515E-01  2.846978009470E-01  2.712999876036E-01
  2.585052864215E-01  2.462857303135E-01  2.346146522712E-01  2.234666395196E-01
  2.128174877635E-01  2.026441556217E-01  1.929247193561E-01  1.836383279333E-01
  1.747651588448E-01  1.662863734671E-01  1.581840756416E-01  1.504412674139E-01
  1.430418074455E-01  1.359703775235E-01  1.292124402871E-01  1.227541945785E-01
  1.165825318397E-01  1.106850076849E-01  1.050498040568E-01  9.966569732427E-02
  9.452202560689E-02  8.960865754671E-02  8.491596213298E-02  8.043477969154E-02
  7.615639406323E-02  7.207250598640E-02  6.817520768839E-02  6.445695868439E-02
  6.091056277600E-02  5.752914623878E-02  5.430613718500E-02  5.123524608670E-02
  4.831044744245E-02  4.552596257101E-02  4.287624351391E-02  4.035595802804E-02
  3.795997564859E-02  3.568335480068E-02  3.352133093575E-02  3.146930566644E-02
  2.952283687024E-02  2.767762972897E-02  2.592952866663E-02  2.427451014421E-02
  2.270867626613E-02  2.122824914889E-02  1.982956599792E-02  1.850907483926E-02
  1.726333084379E-02  1.608899318524E-02  1.498282237109E-02  1.394167798499E-02
  1.296251678054E-02  1.204239106796E-02  1.117844733775E-02  1.036792506882E-02
  9.608155672045E-03  8.896561524710E-03  8.230655055581E-03  7.608037845333E-03
  7.026399711655E-03  6.483517753247E-03  5.977255331541E-03  5.505560973466E-03
  5.066467182729E-03  4.658089151033E-03  4.278623364131E-03  3.926346100849E-03
  3.599611825965E-03  3.296851480292E-03  3.016570673342E-03  2.757347785666E-03
  2.517831989324E-03  2.296741196000E-03  2.092859943034E-03  1.905037228154E-03
  1.732184303967E-03  1.573272443303E-03  1.427330686398E-03  1.293443580606E-03
  1.170748922887E-03  1.058435514769E-03  9.557409388207E-04  8.619493649483E-04
  7.763893939916E-04  6.984319452762E-04  6.274881938718E-04  5.630075624188E-04
  5.044757714943E-04  4.514129516145E-04  4.033718191413E-04  3.599359175780E-04
  3.207179250262E-04  2.853580279359E-04  2.535223607272E-04  2.249015103987E-04
  1.992090848604E-04  1.761803434455E-04  1.555708878536E-04  1.371554116521E-04
  1.207265064066E-04  1.060935225063E-04  9.308148279824E-05  8.153004721313E-05
  7.129252666971E-05  6.223494464653E-05  5.423514492390E-05  4.718194410208E-05
  4.097432759621E-05  3.552068788761E-05  3.073810387257E-05  2.655166019368E-05
  2.289380546414E-05  1.970374830482E-05  1.692689010795E-05  1.451429342401E-05
  1.242218484125E-05  1.061149119430E-05  9.047407901599E-06  7.698998193749E-06
  6.538821959341E-06  5.542592902380E-06  4.688862678651E-06  3.958730658160E-06
  3.335577948080E-06  2.804824306084E-06  2.353706577751E-06  1.971077303812E-06
  1.647222163106E-06  1.373694944753E-06  1.143168777532E-06  9.493023850821E-07
  7.866201814139E-07  6.504050715646E-07  5.366028760096E-07  4.417373539567E-07
  3.628348589253E-07  2.973577193398E-07  2.431454964911E-07  1.983633314998E-07
  1.614566512683E-07  1.311115603411E-07  1.062203006829E-07  8.585121428551E-08
  6.922269396329E-08  5.568065547639E-08  4.467910910744E-08  3.576345090764E-08
  2.855613299991E-08  2.274440858045E-08  1.806988064292E-08  1.431961403617E-08
  1.131859835706E-08  8.923374494319E-09  7.016660512450E-09  5.502833140874E-09
  4.304139564369E-09  3.357530651159E-09  2.612021359181E-09  2.026496982037E-09
  1.567895282419E-09  1.209704555380E-09  9.307264028935E-10  7.140596131007E-10
  5.462681428248E-10  4.167019118275E-10  3.169440349055E-10  2.403623374147E-10
  1.817466069195E-10  1.370161059368E-10  1.029844777391E-10  7.717138190243E-11
  5.765205044804E-11  4.293752544964E-11  3.187960402421E-11  2.359569269156E-11
</data>
</radfunc>
</valence-charge>
<pseudocore-charge matching-radius="0.698910254510"
 number-of-continuous-derivatives="2">
<annotation model-core-charge="Three-parameter Martins fit" />
<radfunc>
<data>
  4.872621916034E+01  4.872499107051E+01  4.872127004138E+01  4.871513534958E+01
  4.870645761288E+01  4.869516351935E+01  4.868096714988E+01  4.866351648294E+01
  4.864359202529E+01  4.862003448160E+01  4.859313865140E+01  4.856355709679E+01
  4.853231873092E+01  4.849506937343E+01  4.845748124680E+01  4.841376195970E+01
  4.837192356408E+01  4.832445942133E+01  4.827060586200E+01  4.820949357083E+01
  4.815471660216E+01  4.809409333041E+01  4.802699104259E+01  4.795270676490E+01
  4.787045912575E+01  4.780302831491E+01  4.773022921080E+01  4.765162606547E+01
  4.756674659587E+01  4.747507878142E+01  4.737606737047E+01  4.726911007018E+01
  4.715355339300E+01  4.702868813184E+01  4.689374443508E+01  4.674788645259E+01
  4.664413922004E+01  4.653485144747E+01  4.641971888385E+01  4.629842004480E+01
  4.617061523575E+01  4.603594552795E+01  4.589403168714E+01  4.574447305530E+01
  4.558684638665E+01  4.542070463991E+01  4.524557572974E+01  4.506096124181E+01
  4.486633511701E+01  4.466114231269E+01  4.444479745056E+01  4.421668346347E+01
  4.397615025671E+01  4.372251340257E+01  4.345505289136E+01  4.317301196698E+01
  4.287559608081E+01  4.256197200417E+01  4.223126714733E+01  4.188256914183E+01
  4.151492575262E+01  4.112734519791E+01  4.071879696746E+01  4.028821324416E+01
  4.006431468971E+01  3.983449104946E+01  3.959859945006E+01  3.935649525086E+01
  3.910803219630E+01  3.885306258837E+01  3.859143748091E+01  3.832300689715E+01
  3.804762007259E+01  3.776512572482E+01  3.747537235231E+01  3.717820856420E+01
  3.687348344320E+01  3.656104694373E+01  3.624075032761E+01  3.591244663950E+01
  3.557599122468E+01  3.523124229121E+01  3.487806151926E+01  3.451631471980E+01
  3.414587254509E+01  3.376661125345E+01  3.337841353045E+01  3.298116936880E+01
  3.257477700896E+01  3.215914394229E+01  3.173418797841E+01  3.129983837798E+01
  3.085603705196E+01  3.040273982775E+01  2.993991778236E+01  2.946755864181E+01
  2.898566824568E+01  2.849427207458E+01  2.799341683764E+01  2.748317211593E+01
  2.696363205671E+01  2.643491711198E+01  2.589717581356E+01  2.535058657511E+01
  2.479535951008E+01  2.423173825238E+01  2.366000176492E+01  2.308046611868E+01
  2.249357511012E+01  2.190017879269E+01  2.130127917566E+01  2.069793086352E+01
  2.009122796846E+01  1.948229180419E+01  1.887225938381E+01  1.826227273785E+01
  1.765346906198E+01  1.704697169756E+01  1.644388194246E+01  1.584527168385E+01
  1.525217683972E+01  1.466559159111E+01  1.408646338267E+01  1.351568866573E+01
  1.295410935426E+01  1.240250996177E+01  1.186161538428E+01  1.133208929295E+01
  1.081453309814E+01  1.030948544574E+01  9.817422205610E+00  9.338756912059E+00
  8.873841615662E+00  8.422968106542E+00  7.986369469492E+00  7.564221932267E+00
  7.156646969433E+00  6.763713625410E+00  6.385441021822E+00  6.021801015643E+00
  5.672720977527E+00  5.338086658641E+00  5.017745119777E+00  4.711507697136E+00
  4.419152978513E+00  4.140429770420E+00  3.875060034917E+00  3.622741778397E+00
  3.383151876214E+00  3.155948818945E+00  2.940775367877E+00  2.737261109076E+00
  2.545024897039E+00  2.363677180543E+00  2.192822204798E+00  2.032060085409E+00
  1.880988750984E+00  1.739205752440E+00  1.606309938163E+00  1.481902995247E+00
  1.365590857929E+00  1.256984985199E+00  1.155703510320E+00  1.061372265641E+00
  9.736256866684E-01  8.921075998737E-01  8.164718991079E-01  7.463831158668E-01
  6.815168889106E-01  6.215603389613E-01  5.662123543486E-01  5.151837935705E-01
  4.681976107744E-01  4.249889101598E-01  3.853049352485E-01  3.489049988805E-01
  3.155603596660E-01  2.850540504630E-01  2.571806642682E-01  2.317461026948E-01
  2.085672919839E-01  1.874718712507E-01  1.682978574066E-01  1.508932909323E-01
  1.351158664047E-01  1.208325514015E-01  1.079191971330E-01  9.626014387606E-02
  8.574782401347E-02  7.628236522054E-02  6.777119608360E-02  6.012865618915E-02
  5.327561248635E-02  4.713908350064E-02  4.165187276333E-02  3.675221262114E-02
  3.238341940111E-02  2.849356073060E-02  2.503513564824E-02  2.196476799071E-02
  1.924291340102E-02  1.683358017667E-02  1.470406406061E-02  1.282469697327E-02
  1.116860959098E-02  9.711507592854E-03  8.431461325924E-03  7.308708575449E-03
  6.325470073638E-03  5.465777335440E-03  4.715312373507E-03  4.061258815615E-03
  3.492163926130E-03  2.997811017886E-03  2.569101731458E-03  2.197947654782E-03
  1.877170756605E-03  1.600412112006E-03  1.362048406393E-03  1.157115715701E-03
  9.812400742803E-04  8.305743578479E-04  7.017410264671E-04  5.917802913533E-04
  4.981032891425E-04  4.184498677738E-04  3.508506089859E-04  2.935927335255E-04
  2.451895561585E-04  2.043531783536E-04  1.699701270013E-04  1.410796673812E-04
  1.168545380177E-04  9.658387366864E-05  7.965810060662E-05  6.555560549065E-05
  5.383099534077E-05  4.410478157879E-05  3.605433558921E-05  2.940597690962E-05
  2.392806792882E-05  1.942500086334E-05  1.573197384867E-05  1.271046321374E-05
  1.024430845283E-05  8.236335094399E-06  6.605448626217E-06  5.284139909400E-06
  4.216349137424E-06  3.355641409975E-06  2.663652434440E-06  2.108767779260E-06
  1.665003521620E-06  1.311060094653E-06  1.029524682522E-06  8.062006705440E-07
  6.295454647931E-07  4.902004831398E-07  3.805993169661E-07  2.946419977604E-07
  2.274250014350E-07  1.750181096804E-07  1.342805443329E-07  1.027099181729E-07
  7.831852267532E-08  5.953231725837E-08  4.510871120980E-08  3.406985292504E-08
  2.564867419796E-08  1.924539157837E-08  1.439255255923E-08  1.072704076467E-08
  7.967729520538E-09  5.897704401391E-09  4.350168889424E-09  3.197308696326E-09
  2.341524426086E-09  1.708553288969E-09  1.242092148119E-09  8.996094166883E-10
  6.490948953443E-10  4.665468418644E-10  3.340363335241E-10  2.382219594156E-10
  1.692144501891E-10  1.197121742765E-10  8.434547010203E-11  5.918134741459E-11
  4.135084227147E-11  2.876979722028E-11  1.993050933759E-11  1.374691041306E-11
  9.440013090650E-12  6.453514527396E-12  4.391888786690E-12  2.975175595959E-12
  2.006109867117E-12  1.346331534486E-12  8.992461804664E-13  5.977344477925E-13
  3.953799303853E-13  2.602381062253E-13  1.704315921652E-13  1.110516421694E-13
  7.198930652961E-14  4.642493216442E-14  2.978151025776E-14  1.900316241783E-14
  1.206035334749E-14  7.612374192479E-15  4.778337330194E-15  2.982636833113E-15
  1.851231878768E-15  1.142425204645E-15  7.009233628299E-16  4.275215749794E-16
  2.592142372081E-16  1.562216366859E-16  9.357780575078E-17  5.570848031633E-17
  3.295744904866E-17  1.937476008877E-17  1.131711623713E-17  6.567766948463E-18
  3.786584004078E-18  2.168654266300E-18  1.233702448750E-18  6.970629241621E-19
  3.911457425110E-19  2.179583194082E-19  1.205977474758E-19  6.625185609033E-20
  3.613364161372E-20  1.956327113630E-20  1.051351657242E-20  5.607787455626E-21
  2.968464141565E-21  1.559293896476E-21  8.127158323690E-22  4.202639666932E-22
  2.155936004853E-22  1.097076422190E-22  5.537091200613E-23  2.771571962507E-23
  1.375706105983E-23  6.770721482129E-24  3.303757641113E-24  1.598081531396E-24
  7.662318066163E-25  3.641197795280E-25  1.714758488154E-25  8.001793945669E-26
  3.699541998107E-26  1.694472786825E-26  7.687700692982E-27  3.454475379483E-27
  1.537231851611E-27  6.773536593110E-28  2.954996269067E-28  1.276173038922E-28
  5.455298157370E-29  2.307959238081E-29  9.662337306986E-30  4.002429112760E-30
  1.640192193145E-30  6.648703549292E-31  2.665576082813E-31  1.056810376302E-31
  4.142801670111E-32  1.605538565292E-32  6.150557926476E-33  2.328693400097E-33
  8.712648155643E-34  3.220797371217E-34  1.176214086764E-34  4.242804675710E-35
</data>
</radfunc>
</pseudocore-charge>
<semilocal-potentials set="spin_average">
<slps n="4" l="s" rc="1.99741877241" flavor="Troullier-Martins">
<radfunc>
<data>
 -4.244615342395E+00 -4.244630334754E+00 -4.244675739530E+00 -4.244750516605E+00
 -4.244856121366E+00 -4.244993267558E+00 -4.245165176917E+00 -4.245375760708E+00
 -4.245615206434E+00 -4.245896948765E+00 -4.246216804667E+00 -4.246566365208E+00
 -4.246932956855E+00 -4.247366661722E+00 -4.247800523814E+00 -4.248300359937E+00
 -4.248773855352E+00 -4.249305283276E+00 -4.249900858510E+00 -4.250567184954E+00
 -4.251155827907E+00 -4.251797813337E+00 -4.252496803000E+00 -4.253256405544E+00
 -4.254080075564E+00 -4.254741794474E+00 -4.255442523650E+00 -4.256183253487E+00
 -4.256964728240E+00 -4.257787379975E+00 -4.258651251947E+00 -4.259555910321E+00
 -4.260500343267E+00 -4.261482846482E+00 -4.262500894378E+00 -4.263550996357E+00
 -4.264266644792E+00 -4.264992835093E+00 -4.265727606412E+00 -4.266468691408E+00
 -4.267213489255E+00 -4.267959037557E+00 -4.268701983274E+00 -4.269438552771E+00
 -4.270164521140E+00 -4.270875180936E+00 -4.271565310491E+00 -4.272229141951E+00
 -4.272860329192E+00 -4.273451915747E+00 -4.273996302804E+00 -4.274485217329E+00
 -4.274909680210E+00 -4.275259974241E+00 -4.275525611509E+00 -4.275695299530E+00
 -4.275756905091E+00 -4.275697414276E+00 -4.275502886583E+00 -4.275158400247E+00
 -4.274647985073E+00 -4.273954538080E+00 -4.273059716333E+00 -4.271943800513E+00
 -4.271296352068E+00 -4.270585522363E+00 -4.269808375549E+00 -4.268961849480E+00
 -4.268042746330E+00 -4.267047722435E+00 -4.265973277407E+00 -4.264815742598E+00
 -4.263571269029E+00 -4.262235814965E+00 -4.260805133375E+00 -4.259274759561E+00
 -4.257639999365E+00 -4.255895918414E+00 -4.254037332975E+00 -4.252058803100E+00
 -4.249954628842E+00 -4.247718850440E+00 -4.245345253472E+00 -4.242827380092E+00
 -4.240158547519E+00 -4.237331875055E+00 -4.234340320892E+00 -4.231176730001E+00
 -4.227833894311E+00 -4.224304626263E+00 -4.220581846655E+00 -4.216658687387E+00
 -4.212528609401E+00 -4.208185535634E+00 -4.203623998316E+00 -4.198839299332E+00
 -4.193827681745E+00 -4.188586509912E+00 -4.183114455023E+00 -4.177411680567E+00
 -4.171480041949E+00 -4.165323165817E+00 -4.158947045631E+00 -4.152359231751E+00
 -4.145566515280E+00 -4.138603673584E+00 -4.131414177402E+00 -4.124219622518E+00
 -4.117405851391E+00 -4.110774958322E+00 -4.104135885840E+00 -4.097551769383E+00
 -4.091006710568E+00 -4.084501471426E+00 -4.078036171699E+00 -4.071610090703E+00
 -4.065223690508E+00 -4.058878465689E+00 -4.052577355232E+00 -4.046324968804E+00
 -4.040127773080E+00 -4.033994225326E+00 -4.027934862118E+00 -4.021962349119E+00
 -4.016091497454E+00 -4.010339251637E+00 -4.004724653383E+00 -3.999268785001E+00
 -3.993994695502E+00 -3.988927311984E+00 -3.984093338363E+00 -3.979521143098E+00
 -3.975240637117E+00 -3.971283142810E+00 -3.967681254699E+00 -3.964468691714E+00
 -3.961680141985E+00 -3.959351097376E+00 -3.957517681191E+00 -3.956216465862E+00
 -3.955484273349E+00 -3.955357972601E+00 -3.955874257707E+00 -3.957069403148E+00
 -3.958979010625E+00 -3.961637726936E+00 -3.965078934722E+00 -3.969334416067E+00
 -3.974433978586E+00 -3.980405041839E+00 -3.987272176896E+00 -3.995056592911E+00
 -4.003775563699E+00 -4.013441786987E+00 -4.024062668909E+00 -4.035639526358E+00
 -4.048166700210E+00 -4.061630573180E+00 -4.076008487277E+00 -4.091267557531E+00
 -4.107363381001E+00 -4.124238643137E+00 -4.141821627535E+00 -4.160024640238E+00
 -4.178742366250E+00 -4.197850184362E+00 -4.217202477169E+00 -4.236630986855E+00
 -4.255943284667E+00 -4.274921443158E+00 -4.293321025538E+00 -4.310870534916E+00
 -4.327271496304E+00 -4.342199372773E+00 -4.355305539765E+00 -4.366220552802E+00
 -4.374558938219E+00 -4.379925710241E+00 -4.381924770491E+00 -4.380169283225E+00
 -4.374294052972E+00 -4.363969878323E+00 -4.348919836037E+00 -4.328937480860E+00
 -4.303907032949E+00 -4.273825812387E+00 -4.238829038472E+00 -4.199219287748E+00
 -4.155493552743E+00 -4.108396582454E+00 -4.058925701178E+00 -4.008431657189E+00
 -3.958328482598E+00 -3.908854443973E+00 -3.860024015148E+00 -3.811840421044E+00
 -3.764273441173E+00 -3.717322691372E+00 -3.670974930391E+00 -3.625221522386E+00
 -3.580053071009E+00 -3.535460660811E+00 -3.491435610613E+00 -3.447969491055E+00
 -3.405054106630E+00 -3.362681482334E+00 -3.320843850899E+00 -3.279533640852E+00
 -3.238743465384E+00 -3.198466111985E+00 -3.158694532829E+00 -3.119421835881E+00
 -3.080641276632E+00 -3.042321183070E+00 -3.004490419149E+00 -2.967139520624E+00
 -2.930259973066E+00 -2.893844003261E+00 -2.857884418070E+00 -2.822374479894E+00
 -2.787307810862E+00 -2.752678320080E+00 -2.718480147005E+00 -2.684707619470E+00
 -2.651355221482E+00 -2.618417567772E+00 -2.585889387335E+00 -2.553765507235E+00
 -2.522040843823E+00 -2.490710394635E+00 -2.459769230856E+00 -2.429212495525E+00