<?xml version="1.0" encoding="UTF-8" ?>
<psml version="1.1" energy_unit="hartree" length_unit="bohr"
 uuid="20647db0-47cb-11e8-5b81-64c0ae7f9f3c"
 xmlns="http://esl.cecam.org/PSML/ns/1.1">
<provenance creator="ONCVPSP-3.3.0+psml-3.3.0-73 (fully-relativistic)"
 date="2018-04-24">
<annotation action="semilocal-pseudopotential-generation"
 action-cont="projectors-generation" />
<input-file name="oncvpsp-input">
<![CDATA[# atsym z nc nv iexc psfile
H 1 0 1 4 both
# n l f
1 0 1.0
# lmax
1
# l rc ep ncon nbas qcut
0 1.0 0.0 4 7 8.5
1 0.7 0.05 4 7 11.0
# lloc lpopt rc5 dvloc0
4 5 0.7 0.0
# l nproj debl
0 2 1.0
1 1 1.0
# icmod fcfact rcfact
0 0.25 0.0
# epsh1 epsh2 depsh
-12.0 12.0 0.02
# rlmax drl
3.0 0.01
 0
]]>
</input-file>
</provenance>
<pseudo-atom-spec atomic-label="H" atomic-number="1" z-pseudo="1"
 flavor="Hamann&apos;s oncvpsp" relativity="dirac" spin-dft="no"
 core-corrections="no">
<annotation pseudo-energy="-0.458734954904" />
<exchange-correlation>
<annotation oncvpsp-xc-code="4" oncvpsp-xc-type="GGA -- Perdew-Burke-Ernzerhof" />
<libxc-info number-of-functionals="2">
<functional name="Perdew, Burke &amp; Ernzerhof (GGA)" type="exchange" id="101" />
<functional name="Perdew, Burke &amp; Ernzerhof (GGA)" type="correlation"
 id="130" />
</libxc-info>
</exchange-correlation>
<valence-configuration total-valence-charge="1">
<shell n="1" l="s" occupation="1" />
</valence-configuration>
</pseudo-atom-spec>
<grid npts="457">
<annotation type="sampled from oncvpsp log grid"
 recipe="r(i:1..N) = r1*exp(a*(i-1)) + r=0; resampled"
 recipe-cont="r1: scale; a: step" scale="0.500000000000E-03"
 step="0.119285708653E-01" delta="0.500000000000E-02" rmax="44.2954833909" />
<grid-data>
  0.000000000000E+00  5.058123513090E-03  1.010320477012E-02  1.515641821668E-02
  2.018035865727E-02  2.531387423390E-02  3.063704102628E-02  3.577613994437E-02
  4.079238691286E-02  4.596044693552E-02  5.116922694735E-02  5.629281359158E-02
  6.192942616304E-02  6.732256330795E-02  7.318536293912E-02  7.861534161388E-02
  8.444819686430E-02  8.963816212109E-02  9.514708906524E-02  1.009945802476E-01
  1.072014429406E-01  1.124404774478E-01  1.179355484579E-01  1.236991687138E-01
  1.297444624675E-01  1.360851953657E-01  1.427358057947E-01  1.479362033189E-01
  1.533260707120E-01  1.589123110676E-01  1.647020789849E-01  1.707027897317E-01
  1.769221287416E-01  1.833680614574E-01  1.900488435324E-01  1.969730314044E-01
  2.041494932539E-01  2.115874203624E-01  2.166959870397E-01  2.219278949507E-01
  2.272861220464E-01  2.327737181771E-01  2.383938068288E-01  2.441495869009E-01
  2.500443345270E-01  2.560814049398E-01  2.622642343807E-01  2.685963420556E-01
  2.750813321382E-01  2.817228958213E-01  2.885248134180E-01  2.954909565132E-01
  3.026252901672E-01  3.099318751730E-01  3.174148703672E-01  3.250785349974E-01
  3.329272311463E-01  3.409654262151E-01  3.491976954657E-01  3.576287246250E-01
  3.662633125523E-01  3.751063739706E-01  3.841629422638E-01  3.934381723418E-01
  4.029373435748E-01  4.126658627981E-01  4.226292673895E-01  4.277008185981E-01
  4.328332284213E-01  4.380272271624E-01  4.432835538883E-01  4.486029565350E-01
  4.539861920134E-01  4.594340263175E-01  4.649472346334E-01  4.705266014490E-01
  4.761729206663E-01  4.818869957143E-01  4.876696396629E-01  4.935216753389E-01
  4.994439354429E-01  5.054372626683E-01  5.115025098203E-01  5.176405399381E-01
  5.238522264174E-01  5.301384531344E-01  5.365001145720E-01  5.429381159469E-01
  5.494533733382E-01  5.560468138183E-01  5.627193755841E-01  5.694720080911E-01
  5.763056721882E-01  5.832213402545E-01  5.902199963375E-01  5.973026362936E-01
  6.044702679291E-01  6.117239111442E-01  6.190645980780E-01  6.264933732549E-01
  6.340112937340E-01  6.416194292588E-01  6.493188624099E-01  6.571106887588E-01
  6.649960170239E-01  6.729759692282E-01  6.810516808589E-01  6.892243010292E-01
  6.974949926416E-01  7.058649325533E-01  7.143353117439E-01  7.229073354848E-01
  7.315822235107E-01  7.403612101928E-01  7.492455447151E-01  7.582364912517E-01
  7.673353291467E-01  7.765433530965E-01  7.858618733336E-01  7.952922158136E-01
  8.048357224034E-01  8.144937510722E-01  8.242676760851E-01  8.341588881981E-01
  8.441687948565E-01  8.542988203948E-01  8.645504062395E-01  8.749250111144E-01
  8.854241112478E-01  8.960492005827E-01  9.068017909897E-01  9.176834124816E-01
  9.286956134314E-01  9.398399607926E-01  9.511180403221E-01  9.625314568059E-01
  9.740818342876E-01  9.857708162991E-01  9.976000660946E-01  1.009571266888E+00
  1.021686122090E+00  1.033946355556E+00  1.046353711822E+00  1.058909956364E+00
  1.071616875840E+00  1.084476278350E+00  1.097489993691E+00  1.110659873615E+00
  1.123987792098E+00  1.137475645604E+00  1.151125353351E+00  1.164938857591E+00
  1.178918123882E+00  1.193065141369E+00  1.207381923065E+00  1.221870506142E+00
  1.236532952216E+00  1.251371347642E+00  1.266387803814E+00  1.281584457460E+00
  1.296963470949E+00  1.312527032601E+00  1.328277356992E+00  1.344216685276E+00
  1.360347285499E+00  1.376671452925E+00  1.393191510360E+00  1.409909808484E+00
  1.426828726186E+00  1.443950670900E+00  1.461278078951E+00  1.478813415899E+00
  1.496559176889E+00  1.514517887012E+00  1.532692101656E+00  1.551084406876E+00
  1.569697419759E+00  1.588533788796E+00  1.607596194261E+00  1.626887348592E+00
  1.646409996776E+00  1.666166916737E+00  1.686160919738E+00  1.706394850775E+00
  1.726871588984E+00  1.747594048052E+00  1.768565176628E+00  1.789787958748E+00
  1.811265414253E+00  1.833000599224E+00  1.854996606414E+00  1.877256565691E+00
  1.899783644480E+00  1.922581048214E+00  1.945652020792E+00  1.968999845042E+00
  1.992627843182E+00  2.016539377300E+00  2.040737849828E+00  2.065226704026E+00
  2.090009424474E+00  2.115089537568E+00  2.140470612019E+00  2.166156259363E+00
  2.192150134475E+00  2.218455936089E+00  2.245077407322E+00  2.272018336210E+00
  2.299282556244E+00  2.326873946919E+00  2.354796434282E+00  2.383053991494E+00
  2.411650639392E+00  2.440590447064E+00  2.469877532429E+00  2.499516062818E+00
  2.529510255572E+00  2.559864378639E+00  2.590582751183E+00  2.621669744197E+00
  2.653129781127E+00  2.684967338501E+00  2.717186946563E+00  2.749793189921E+00
  2.782790708200E+00  2.816184196699E+00  2.849978407059E+00  2.884178147944E+00
  2.918788285719E+00  2.953813745148E+00  2.989259510090E+00  3.025130624211E+00
  3.061432191701E+00  3.098169378002E+00  3.135347410538E+00  3.172971579464E+00
  3.211047238418E+00  3.249579805279E+00  3.288574762942E+00  3.328037660097E+00
  3.367974112019E+00  3.408389801363E+00  3.449290478979E+00  3.490681964727E+00
  3.532570148304E+00  3.574960990083E+00  3.617860521964E+00  3.661274848228E+00
  3.705210146407E+00  3.749672668164E+00  3.794668740181E+00  3.840204765064E+00
  3.886287222244E+00  3.932922668911E+00  3.980117740938E+00  4.027879153830E+00
  4.076213703676E+00  4.125128268120E+00  4.174629807337E+00  4.224725365025E+00
  4.275422069405E+00  4.326727134238E+00  4.378647859849E+00  4.431191634167E+00
  4.484365933777E+00  4.538178324983E+00  4.592636464882E+00  4.647748102461E+00
  4.703521079691E+00  4.759963332647E+00  4.817082892639E+00  4.874887887350E+00
  4.933386541998E+00  4.992587180502E+00  5.052498226668E+00  5.113128205389E+00
  5.174485743853E+00  5.236579572779E+00  5.299418527653E+00  5.363011549985E+00
  5.427367688584E+00  5.492496100847E+00  5.558406054058E+00  5.625106926706E+00
  5.692608209827E+00  5.760919508345E+00  5.830050542445E+00  5.900011148954E+00
  5.970811282742E+00  6.042461018134E+00  6.114970550352E+00  6.188350196956E+00
  6.262610399320E+00  6.337761724112E+00  6.413814864801E+00  6.490780643179E+00
  6.568670010897E+00  6.647494051028E+00  6.727263979640E+00  6.807991147396E+00
  6.889687041164E+00  6.972363285658E+00  7.056031645086E+00  7.140704024827E+00
  7.226392473125E+00  7.313109182803E+00  7.400866492996E+00  7.489676890912E+00
  7.579553013603E+00  7.670507649766E+00  7.762553741564E+00  7.855704386462E+00
  7.949972839100E+00  8.045372513169E+00  8.141916983327E+00  8.239619987127E+00
  8.338495426973E+00  8.438557372096E+00  8.539820060561E+00  8.642297901288E+00
  8.746005476104E+00  8.850957541817E+00  8.957169032319E+00  9.064655060706E+00
  9.173430921435E+00  9.283512092492E+00  9.394914237602E+00  9.507653208453E+00
  9.621745046955E+00  9.737205987518E+00  9.854052459368E+00  9.972301088881E+00
  1.009196870195E+01  1.021307232637E+01  1.033562919429E+01  1.045965674462E+01
  1.058517262555E+01  1.071219469706E+01  1.084074103343E+01  1.097082992583E+01
  1.110247988494E+01  1.123570964356E+01  1.137053815928E+01  1.150698461719E+01
  1.164506843260E+01  1.178480925379E+01  1.192622696483E+01  1.206934168841E+01
  1.221417378867E+01  1.236074387414E+01  1.250907280063E+01  1.265918167423E+01
  1.281109185432E+01  1.296482495658E+01  1.312040285605E+01  1.327784769033E+01
  1.343718186261E+01  1.359842804496E+01  1.376160918150E+01  1.392674849168E+01
  1.409386947358E+01  1.426299590726E+01  1.443415185815E+01  1.460736168045E+01
  1.478265002061E+01  1.496004182086E+01  1.513956232271E+01  1.532123707058E+01
  1.550509191543E+01  1.569115301842E+01  1.587944685464E+01  1.607000021689E+01
  1.626284021949E+01  1.645799430213E+01  1.665549023375E+01  1.685535611656E+01
  1.705762038996E+01  1.726231183464E+01  1.746945957665E+01  1.767909309157E+01
  1.789124220867E+01  1.810593711518E+01  1.832320836056E+01  1.854308686088E+01
  1.876560390322E+01  1.899079115005E+01  1.921868064385E+01  1.944930481158E+01
  1.968269646932E+01  1.991888882695E+01  2.015791549288E+01  2.039981047879E+01
  2.064460820454E+01  2.089234350299E+01  2.114305162503E+01  2.139676824453E+01
  2.165352946346E+01  2.191337181702E+01  2.217633227883E+01  2.244244826617E+01
  2.271175764537E+01  2.298429873711E+01  2.326011032196E+01  2.353923164582E+01
  2.382170242557E+01  2.410756285468E+01  2.439685360893E+01  2.468961585224E+01
  2.498589124247E+01  2.528572193738E+01  2.558915060062E+01  2.589622040783E+01
  2.620697505273E+01  2.652145875336E+01  2.683971625840E+01  2.716179285350E+01
  2.748773436774E+01  2.781758718015E+01  2.815139822632E+01  2.848921500503E+01
  2.883108558509E+01  2.917705861211E+01  2.952718331546E+01  2.988150951524E+01
  3.024008762943E+01  3.060296868098E+01  3.097020430515E+01  3.134184675681E+01
  3.171794891790E+01  3.209856430491E+01  3.248374707657E+01  3.287355204149E+01
  3.326803466599E+01  3.366725108198E+01  3.407125809496E+01  3.448011319210E+01
  3.489387455041E+01  3.531260104501E+01  3.573635225755E+01  3.616518848464E+01
  3.659917074646E+01  3.703836079541E+01  3.748282112496E+01  3.793261497846E+01
  3.838780635820E+01  3.884846003450E+01  3.931464155491E+01  3.978641725357E+01
  4.026385426062E+01  4.074702051174E+01  4.123598475788E+01  4.173081657498E+01
  4.223158637388E+01  4.273836541036E+01  4.325122579529E+01  4.377024050483E+01
  4.429548339089E+01
</grid-data>
</grid>
<valence-charge total-charge="1" is-unscreening-charge="yes"
 rescaled-to-z-pseudo="no">
<radfunc>
<data npts="457">
  2.412030256384E+00  2.411863630020E+00  2.411364505893E+00  2.410531833460E+00
  2.409374500823E+00  2.407853428405E+00  2.405916001918E+00  2.403699080616E+00
  2.401208427047E+00  2.398306648637E+00  2.395039345849E+00  2.391492203929E+00
  2.387211087605E+00  2.382746662728E+00  2.377489069401E+00  2.372247937553E+00
  2.366224532500E+00  2.360526686925E+00  2.354134741925E+00  2.346967975711E+00
  2.338937272830E+00  2.331825054888E+00  2.324042666221E+00  2.315531358096E+00
  2.306228108558E+00  2.296065487779E+00  2.284971558234E+00  2.275994091906E+00
  2.266415866938E+00  2.256201492688E+00  2.245314175803E+00  2.233715764468E+00
  2.221366810878E+00  2.208226654171E+00  2.194253526147E+00  2.179404682190E+00
  2.163636559829E+00  2.146904967408E+00  2.135193296118E+00  2.123020333270E+00
  2.110372822177E+00  2.097237554453E+00  2.083601414741E+00  2.069451429102E+00
  2.054774817191E+00  2.039559048346E+00  2.023791901693E+00  2.007461530408E+00
  1.990556530233E+00  1.973066012393E+00  1.954979681028E+00  1.936287915294E+00
  1.916981856270E+00  1.897053498861E+00  1.876495788855E+00  1.855302725346E+00
  1.833469468717E+00  1.810992454414E+00  1.787869512695E+00  1.764099994570E+00
  1.739684904042E+00  1.714627036747E+00  1.688931124917E+00  1.662603988458E+00
  1.635654691663E+00  1.608094704799E+00  1.579938069339E+00  1.565641140545E+00
  1.551201565127E+00  1.536621895801E+00  1.521904877099E+00  1.507053450333E+00
  1.492070758389E+00  1.476960150335E+00  1.461725185781E+00  1.446369638947E+00
  1.430897502384E+00  1.415312990280E+00  1.399620541298E+00  1.383824820860E+00
  1.367930722816E+00  1.351943370406E+00  1.335868116445E+00  1.319710542627E+00
  1.303476457869E+00  1.287171895598E+00  1.270803109885E+00  1.254376570324E+00
  1.237898955580E+00  1.221377145486E+00  1.204818211619E+00  1.188229406264E+00
  1.171618149682E+00  1.154992015625E+00  1.138358715035E+00  1.121726077871E+00
  1.105102033068E+00  1.088494586587E+00  1.071911797588E+00  1.055361752760E+00
  1.038852538876E+00  1.022392213659E+00  1.005988775102E+00  9.896501293867E-01
  9.733840576165E-01  9.571981815920E-01  9.410999289092E-01  9.250964977009E-01
  9.091948213792E-01  8.934015337800E-01  8.777229351476E-01  8.621649594355E-01
  8.467331434289E-01  8.314325982254E-01  8.162679836294E-01  8.012434860366E-01
  7.863628003864E-01  7.716291167601E-01  7.570451121842E-01  7.426129481705E-01
  7.283342744793E-01  7.142102395313E-01  7.002415078157E-01  6.864282845410E-01
  6.727703476601E-01  6.592670872601E-01  6.459175521504E-01  6.327205033024E-01
  6.196744736000E-01  6.067778331488E-01  5.940288591693E-01  5.814258092716E-01
  5.689669966803E-01  5.566508657580E-01  5.444760659710E-01  5.324415222604E-01
  5.205464996425E-01  5.087906597656E-01  4.971741071162E-01  4.856974226006E-01
  4.743616421867E-01  4.631680553132E-01  4.521179081915E-01  4.412123531568E-01
  4.304524979460E-01  4.198393813451E-01  4.093739760112E-01  3.990571872571E-01
  3.888898522646E-01  3.788727393686E-01  3.690065474037E-01  3.592919051162E-01
  3.497293706424E-01  3.403194310541E-01  3.310625019731E-01  3.219589272552E-01
  3.130089787452E-01  3.042128561027E-01  2.955706867008E-01  2.870825255969E-01
  2.787483555773E-01  2.705680872749E-01  2.625415593613E-01  2.546685388127E-01
  2.469487212498E-01  2.393817313519E-01  2.319671233443E-01  2.247043815601E-01
  2.175929210741E-01  2.106320884096E-01  2.038211623175E-01  1.971593546258E-01
  1.906458111599E-01  1.842796127322E-01  1.780597761995E-01  1.719852555885E-01
  1.660549432860E-01  1.602676712950E-01  1.546222125528E-01  1.491172823116E-01
  1.437515395789E-01  1.385235886165E-01  1.334319804960E-01  1.284752147098E-01
  1.236517408349E-01  1.189599602478E-01  1.143982278891E-01  1.099648540748E-01
  1.056581063528E-01  1.014762114027E-01  9.741735697546E-02  9.347969387194E-02
  8.966133795705E-02  8.596037220740E-02  8.237484878960E-02  7.890279116692E-02
  7.554219623117E-02  7.229103645716E-02  6.914726207680E-02  6.610880326955E-02
  6.317357236545E-02  6.033946606178E-02  5.760436764056E-02  5.496614919309E-02
  5.242267384289E-02  4.997179796425E-02  4.761137339256E-02  4.533924962240E-02
  4.315327598935E-02  4.105130383133E-02  3.903118862528E-02  3.709079209486E-02
  3.522798428494E-02  3.344064559845E-02  3.172666879137E-02  3.008396092157E-02
  2.851044524728E-02  2.700406307104E-02  2.556277552521E-02  2.418456529513E-02
  2.286743827618E-02  2.160942516143E-02  2.040858295649E-02  1.926299641855E-02
  1.817077941704E-02  1.713007621326E-02  1.613906265711E-02  1.519594729892E-02
  1.429897241511E-02  1.344641494661E-02  1.263658734914E-02  1.186783835528E-02
  1.113855364819E-02  1.044715644733E-02  9.792108007133E-03  9.171908029521E-03
  8.585094991791E-03  8.030246391652E-03  7.505978911416E-03  7.010948503719E-03
  6.543850401370E-03  6.103419054166E-03  5.688427995723E-03  5.297689643564E-03
  4.930055035846E-03  4.584413508252E-03  4.259692314660E-03  3.954856195274E-03
  3.668906895946E-03  3.400882642428E-03  3.149857573280E-03  2.914941135127E-03
  2.695277443876E-03  2.490044615458E-03  2.298454069504E-03  2.119749809290E-03
  1.953207681121E-03  1.798134616179E-03  1.653867857720E-03  1.519774176305E-03
  1.395249075622E-03  1.279715991257E-03  1.172625484601E-03  1.073454433945E-03
  9.817052246222E-04  8.969049399115E-04  8.186045542906E-04  7.463781304693E-04
  6.798220215234E-04  6.185540793352E-04  5.622128704438E-04  5.104569003202E-04
  4.629638470015E-04  4.194298049497E-04  3.795685399402E-04  3.431107557298E-04
  3.098033732109E-04  2.794088227144E-04  2.517043500880E-04  2.264813371426E-04
  2.035446370269E-04  1.827119250577E-04  1.638130655014E-04  1.466894947709E-04
  1.311936214650E-04  1.171882436420E-04  1.045459836798E-04  9.314874103327E-05
  8.288716315547E-05  7.366013480226E-05  6.537428589247E-05  5.794351804413E-05
  5.128854985606E-05  4.533648095132E-05  4.002037474584E-05  3.527885985259E-05
  3.105574997921E-05  2.729968212603E-05  2.396377284159E-05  2.100529224586E-05
  1.838535548609E-05  1.606863124866E-05  1.402306691154E-05  1.221962988709E-05
  1.063206467302E-05  9.236665102641E-06  8.012061261069E-06  6.939020515192E-06
  6.000262089127E-06  5.180284605393E-06  4.465206004004E-06  3.842615247438E-06
  3.301435218580E-06  2.831796221178E-06  2.424919497821E-06  2.073010188675E-06
  1.769159164988E-06  1.507253184416E-06  1.281892830226E-06  1.088317713213E-06
  9.223384333439E-07  7.802748176029E-07  6.588999708539E-07  5.553896976671E-07
  4.672768746538E-07  3.924103747625E-07  3.289181670084E-07  2.751742370574E-07
  2.297689958220E-07  1.914828645994E-07  1.592627461800E-07  1.322011116681E-07
  1.095174523985E-07  9.054186523207E-08  7.470055760863E-08  6.150307598806E-08
  5.053107768075E-08  4.142848154467E-08  3.389284759251E-08  2.766784921106E-08
  2.253671445460E-08  1.831652474803E-08  1.485327034745E-08  1.201757208062E-08
  9.700988259768E-09  7.812834257521E-09  6.277450101847E-09  5.031858615061E-09
  4.023763136607E-09  3.209839769330E-09  2.554284415561E-09  2.027579662781E-09
  1.605450878754E-09  1.267984721415E-09  9.988866968543E-10  7.848574451435E-10
  6.150701326258E-10  4.807337128602E-10  3.747289169401E-10  2.913056757795E-10
  2.258322885380E-10  1.745880570429E-10  1.345923283517E-10  1.034639470838E-10
  7.930603464603E-11  6.061180105424E-11  4.618777217313E-11  3.509139475128E-11
  2.658047610566E-11  2.007233583656E-11  1.511090343823E-11  1.134029688266E-11
  8.483670930855E-12  6.326336866349E-12  4.702333497007E-12  3.483777819365E-12
  2.572447186243E-12  1.893147056231E-12  1.388502786553E-12  1.014883336267E-12
  7.392216342258E-13  5.365428292697E-13  3.880494544553E-13  2.796432022207E-13
  2.007877849667E-13  1.436373027974E-13  1.023705400377E-13  7.268439646783E-14
  5.140983802853E-14  3.622182301566E-14  2.542104843260E-14  1.777031767599E-14
  0.000000000000E+00  0.000000000000E+00  0.000000000000E+00  0.000000000000E+00
  0.000000000000E+00  0.000000000000E+00  0.000000000000E+00  0.000000000000E+00
  0.000000000000E+00  0.000000000000E+00  0.000000000000E+00  0.000000000000E+00
  0.000000000000E+00  0.000000000000E+00  0.000000000000E+00  0.000000000000E+00
  0.000000000000E+00  0.000000000000E+00  0.000000000000E+00  0.000000000000E+00
  0.000000000000E+00  0.000000000000E+00  0.000000000000E+00  0.000000000000E+00
  0.000000000000E+00  0.000000000000E+00  0.000000000000E+00  0.000000000000E+00
  0.000000000000E+00  0.000000000000E+00  0.000000000000E+00  0.000000000000E+00
  0.000000000000E+00  0.000000000000E+00  0.000000000000E+00  0.000000000000E+00
  0.000000000000E+00  0.000000000000E+00  0.000000000000E+00  0.000000000000E+00
  0.000000000000E+00  0.000000000000E+00  0.000000000000E+00  0.000000000000E+00
  0.000000000000E+00  0.000000000000E+00  0.000000000000E+00  0.000000000000E+00
  0.000000000000E+00  0.000000000000E+00  0.000000000000E+00  0.000000000000E+00
  0.000000000000E+00  0.000000000000E+00  0.000000000000E+00  0.000000000000E+00
  0.000000000000E+00  0.000000000000E+00  0.000000000000E+00  0.000000000000E+00
  0.000000000000E+00  0.000000000000E+00  0.000000000000E+00  0.000000000000E+00
  0.000000000000E+00
</data>
</radfunc>
</valence-charge>
<semilocal-potentials set="scalar_relativistic">
<slps n="1" l="s" rc="1.00957126689">
<radfunc>
<data npts="232">
 -4.598442901725E+00 -4.597960925490E+00 -4.596521102361E+00 -4.594121356895E+00
 -4.590789738005E+00 -4.586417555801E+00 -4.580859263637E+00 -4.574513696131E+00
 -4.567403056502E+00 -4.559143142524E+00 -4.549874051510E+00 -4.539848314206E+00
 -4.527799235837E+00 -4.515293309804E+00 -4.500642039836E+00 -4.486118086679E+00
 -4.469525540516E+00 -4.453926242826E+00 -4.436536801927E+00 -4.417176028608E+00
 -4.395650315573E+00 -4.376733328525E+00 -4.356189350057E+00 -4.333904297366E+00
 -4.309760843780E+00 -4.283639253207E+00 -4.255418402378E+00 -4.232802128081E+00
 -4.208885988802E+00 -4.183619973737E+00 -4.156955250159E+00 -4.128844599926E+00
 -4.099242876488E+00 -4.068107472891E+00 -4.035398787739E+00 -4.001080671956E+00
 -3.965120834336E+00 -3.927491178309E+00 -3.901465190085E+00 -3.874680552558E+00
 -3.847132258725E+00 -3.818816162075E+00 -3.789728925253E+00 -3.759867941547E+00
 -3.729231225098E+00 -3.697817265690E+00 -3.665624843832E+00 -3.632652801853E+00
 -3.598899766911E+00 -3.564363822125E+00 -3.529042122720E+00 -3.492930454842E+00
 -3.456022736085E+00 -3.418310458357E+00 -3.379782076034E+00 -3.340422345017E+00
 -3.300211622010E+00 -3.259125137388E+00 -3.217132260298E+00 -3.174195780579E+00
 -3.130271239069E+00 -3.085306345796E+00 -3.039240534306E+00 -2.992004710024E+00
 -2.943521260615E+00 -2.893704406650E+00 -2.842460980926E+00 -2.816273477600E+00
 -2.789691733847E+00 -2.762702710392E+00 -2.735293269356E+00 -2.707450276899E+00
 -2.679160719898E+00 -2.650411837494E+00 -2.621191268196E+00 -2.591487213168E+00
 -2.561288616286E+00 -2.530585361261E+00 -2.499368486198E+00 -2.467630415492E+00
 -2.435365209016E+00 -2.402568828041E+00 -2.369239417180E+00 -2.335377601255E+00
 -2.300986795516E+00 -2.266073527345E+00 -2.230647766902E+00 -2.194723263793E+00
 -2.158317886143E+00 -2.121453957863E+00 -2.084158589264E+00 -2.046463995357E+00
 -2.008407795639E+00 -1.970033288198E+00 -1.931389690446E+00 -1.892532337951E+00
 -1.853522832196E+00 -1.814429127563E+00 -1.775325547195E+00 -1.736292717205E+00
 -1.697417408315E+00 -1.658792274119E+00 -1.620515475403E+00 -1.582690180377E+00
 -1.545423931706E+00 -1.508827872265E+00 -1.473015823348E+00 -1.438103210991E+00
 -1.404205838712E+00 -1.371438507927E+00 -1.339913490774E+00 -1.309738863927E+00
 -1.281016716594E+00 -1.253841251137E+00 -1.228296799382E+00 -1.204455783029E+00
 -1.182376652478E+00 -1.162101843804E+00 -1.143655799202E+00 -1.127043101310E+00
 -1.112246776640E+00 -1.099226827275E+00 -1.087919053201E+00 -1.078234229676E+00
 -1.070057704649E+00 -1.063249480496E+00 -1.057644841556E+00 -1.053055584380E+00
 -1.049271900755E+00 -1.046064954399E+00 -1.043190180657E+00 -1.040391324314E+00
 -1.037405213983E+00 -1.033967252120E+00 -1.029817577833E+00 -1.024707835228E+00
 -1.018408453177E+00 -1.010716313374E+00 -1.001463213648E+00 -9.905178390000E-01
 -9.787819492023E-01 -9.671785864478E-01 -9.557066249388E-01 -9.443748236142E-01
 -9.331765186268E-01 -9.221111136132E-01 -9.111769168781E-01 -9.003723758267E-01
 -8.896959533133E-01 -8.791461301141E-01 -8.687214050500E-01 -8.584202947396E-01
 -8.482413333910E-01 -8.381830725924E-01 -8.282440811064E-01 -8.184229446664E-01
 -8.087182657748E-01 -7.991286635048E-01 -7.896527733036E-01 -7.802892467980E-01
 -7.710367516025E-01 -7.618939711303E-01 -7.528596044051E-01 -7.439323658764E-01
 -7.351109852365E-01 -7.263942072395E-01 -7.177807915228E-01 -7.092695124306E-01
 -7.008591588395E-01 -6.925485339856E-01 -6.843364552949E-01 -6.762217542146E-01
 -6.682032760467E-01 -6.602798797839E-01 -6.524504379471E-01 -6.447138364248E-01
 -6.370689743146E-01 -6.295147637668E-01 -6.220501298293E-01 -6.146740102947E-01
 -6.073853555492E-01 -6.001831284231E-01 -5.930663040437E-01 -5.860338696891E-01
 -5.790848246441E-01 -5.722181800582E-01 -5.654329588050E-01 -5.587281953430E-01
 -5.521029355785E-01 -5.455562367300E-01 -5.390871671943E-01 -5.326948064141E-01
 -5.263782447472E-01 -5.201365833374E-01 -5.139689339869E-01 -5.078744190299E-01
 -5.018521712087E-01 -4.959013335499E-01 -4.900210592433E-01 -4.842105115208E-01
 -4.784688635400E-01 -4.727952982657E-01 -4.671890083516E-01 -4.616491960295E-01
 -4.561750729939E-01 -4.507658602915E-01 -4.454207882097E-01 -4.401390961681E-01
 -4.349200326098E-01 -4.297628548955E-01 -4.246668291975E-01 -4.196312303956E-01
 -4.146553419740E-01 -4.097384559195E-01 -4.048798726205E-01 -4.000789007676E-01
 -3.953348572552E-01 -3.906470670837E-01 -3.860148632634E-01 -3.814375867196E-01
 -3.769145861978E-01 -3.724452181710E-01 -3.680288467474E-01 -3.636648435795E-01
 -3.593525877740E-01 -3.550914658027E-01 -3.508808714145E-01 -3.467202055485E-01
 -3.426088762477E-01 -3.385462985743E-01 -3.345318945256E-01 -3.305650929504E-01
</data>
</radfunc>
</slps>
<slps n="2" l="p" rc="0.705864932553">
<radfunc>
<data npts="232">
 -5.848412186925E+00 -5.846015893787E+00 -5.838862941439E+00 -5.826963075153E+00
 -5.810487986936E+00 -5.788948113125E+00 -5.761697570141E+00 -5.730769394846E+00
 -5.696343558646E+00 -5.656661310541E+00 -5.612525823248E+00 -5.565259381455E+00
 -5.509104982990E+00 -5.451575935896E+00 -5.385159356612E+00 -5.320368985889E+00
 -5.247633757197E+00 -5.180504630229E+00 -5.107106653515E+00 -5.027172355982E+00
 -4.940512044024E+00 -4.866280482379E+00 -4.787707508625E+00 -4.704881046528E+00
 -4.617970047101E+00 -4.527237299136E+00 -4.433051886213E+00 -4.360435040778E+00
 -4.286398776350E+00 -4.211236035162E+00 -4.135281447874E+00 -4.058910431458E+00
 -3.982536713287E+00 -3.906607927406E+00 -3.831598911118E+00 -3.758002329882E+00
 -3.686316284105E+00 -3.617028612001E+00 -3.572397501788E+00 -3.529161116372E+00
 -3.487429848691E+00 -3.447296876849E+00 -3.408834317386E+00 -3.372089212185E+00
 -3.337079425504E+00 -3.303789548775E+00 -3.272166933596E+00 -3.242117997453E+00
 -3.213504971500E+00 -3.186143284013E+00 -3.159799795898E+00 -3.134192123876E+00
 -3.108989301050E+00 -3.083814030849E+00 -3.058246786224E+00 -3.031831988237E+00
 -3.004086463888E+00 -2.974510328130E+00 -2.942600357010E+00 -2.907865814257E+00
 -2.869846560608E+00 -2.828133113025E+00 -2.782388130649E+00 -2.732368590095E+00
 -2.677947681686E+00 -2.619135222587E+00 -2.556095159656E+00 -2.523086469398E+00
 -2.489158547404E+00 -2.454379993016E+00 -2.418830263734E+00 -2.382599419470E+00
 -2.345787703241E+00 -2.308504948243E+00 -2.270869803108E+00 -2.233008769592E+00
 -2.195055049909E+00 -2.157147204171E+00 -2.119427622506E+00 -2.082040820514E+00
 -2.045131571832E+00 -2.008842896430E+00 -1.973313928993E+00 -1.938677697293E+00
 -1.905058846161E+00 -1.872571348478E+00 -1.841316249774E+00 -1.811379498180E+00
 -1.782829915507E+00 -1.755717368663E+00 -1.730071202693E+00 -1.705898997351E+00
 -1.683185708242E+00 -1.661893250445E+00 -1.641960577636E+00 -1.623304302234E+00
 -1.605819892287E+00 -1.589383468616E+00 -1.573854210810E+00 -1.559077363758E+00
 -1.544887817034E+00 -1.531114208542E+00 -1.517583481538E+00 -1.504125801039E+00
 -1.490579712782E+00 -1.476797405639E+00 -1.462649918300E+00 -1.448032113661E+00
 -1.432867231326E+00 -1.417110820854E+00 -1.401068054856E+00 -1.385233373307E+00
 -1.369536795911E+00 -1.353970863831E+00 -1.338528502912E+00 -1.323203121448E+00
 -1.307988716065E+00 -1.292879984342E+00 -1.277872442177E+00 -1.262962543203E+00
 -1.248147796791E+00 -1.233426880469E+00 -1.218799741880E+00 -1.204267684812E+00
 -1.189833433353E+00 -1.175501168016E+00 -1.161276527583E+00 -1.147166570778E+00
 -1.133179692408E+00 -1.119325489643E+00 -1.105614575471E+00 -1.092058338154E+00
 -1.078668647742E+00 -1.065457513230E+00 -1.052436696826E+00 -1.039617294736E+00
 -1.027009296764E+00 -1.014621139562E+00 -1.002459831251E+00 -9.905245638850E-01
 -9.787819492023E-01 -9.671785864478E-01 -9.557066249388E-01 -9.443748236142E-01
 -9.331765186268E-01 -9.221111136132E-01 -9.111769168781E-01 -9.003723758267E-01
 -8.896959533133E-01 -8.791461301141E-01 -8.687214050500E-01 -8.584202947396E-01
 -8.482413333910E-01 -8.381830725924E-01 -8.282440811064E-01 -8.184229446664E-01
 -8.087182657748E-01 -7.991286635048E-01 -7.896527733036E-01 -7.802892467980E-01
 -7.710367516025E-01 -7.618939711303E-01 -7.528596044051E-01 -7.439323658764E-01
 -7.351109852365E-01 -7.263942072395E-01 -7.177807915228E-01 -7.092695124306E-01
 -7.008591588395E-01 -6.925485339856E-01 -6.843364552949E-01 -6.762217542146E-01
 -6.682032760467E-01 -6.602798797839E-01 -6.524504379471E-01 -6.447138364248E-01
 -6.370689743146E-01 -6.295147637668E-01 -6.220501298293E-01 -6.146740102947E-01
 -6.073853555492E-01 -6.001831284231E-01 -5.930663040437E-01 -5.860338696891E-01
 -5.790848246441E-01 -5.722181800582E-01 -5.654329588050E-01 -5.587281953430E-01
 -5.521029355785E-01 -5.455562367300E-01 -5.390871671943E-01 -5.326948064141E-01
 -5.263782447472E-01 -5.201365833374E-01 -5.139689339869E-01 -5.078744190299E-01
 -5.018521712087E-01 -4.959013335499E-01 -4.900210592433E-01 -4.842105115208E-01
 -4.784688635400E-01 -4.727952982657E-01 -4.671890083516E-01 -4.616491960295E-01
 -4.561750729939E-01 -4.507658602915E-01 -4.454207882097E-01 -4.401390961681E-01
 -4.349200326098E-01 -4.297628548955E-01 -4.246668291975E-01 -4.196312303956E-01
 -4.146553419740E-01 -4.097384559195E-01 -4.048798726205E-01 -4.000789007676E-01
 -3.953348572552E-01 -3.906470670837E-01 -3.860148632634E-01 -3.814375867196E-01
 -3.769145861978E-01 -3.724452181710E-01 -3.680288467474E-01 -3.636648435795E-01
 -3.593525877740E-01 -3.550914658027E-01 -3.508808714145E-01 -3.467202055485E-01
 -3.426088762477E-01 -3.385462985743E-01 -3.345318945256E-01 -3.305650929504E-01