<?xml version="1.0" encoding="UTF-8" ?>
<psml version="1.1" energy_unit="hartree" length_unit="bohr"
 uuid="2921b7a0-23d2-11e8-59d0-a23cdfef97f7"
 xmlns="http://esl.cecam.org/PSML/ns/1.1">
<provenance creator="ONCVPSP-3.3.0+psml-3.3.0-73 (scalar-relativistic)"
 date="2018-03-09">
<annotation action="semilocal-pseudopotential-generation"
 action-cont="projectors-generation" />
<input-file name="oncvpsp-input">
<![CDATA[# atsym z nc nv iexc psfile
Si 14 3 2 -001012 upf
# n l f
1 0 2.0
2 0 2.0
2 1 6.0
3 0 2.0
3 1 2.0
# lmax
2
# l rc ep ncon nbas qcut
0 1.6 0.0 4 9 6.4
1 1.71 0.0 4 9 6.4
2 1.9 0.05 4 9 6.4
# lloc lpopt rc5 dvloc0
4 5 1.6 0.0
# l nproj debl
0 2 2.5
1 2 2.5
2 2 1.5
# icmod fcfact rcfact
3 4.0 1.3
# epsh1 epsh2 depsh
-12.0 12.0 0.02
# rlmax drl
6.0 0.01
 0
]]>
</input-file>
</provenance>
<pseudo-atom-spec atomic-label="Si" atomic-number="14" z-pseudo="4"
 flavor="Hamann&apos;s oncvpsp" relativity="scalar" spin-dft="no"
 core-corrections="yes">
<annotation pseudo-energy="-3.78212931555" />
<exchange-correlation>
<annotation oncvpsp-xc-code="-1012" oncvpsp-xc-type="libxc-interface" />
<libxc-info number-of-functionals="2">
<functional name="Slater exchange (LDA)" type="exchange" id="1" />
<functional name="Perdew &amp; Wang (LDA)" type="correlation" id="12" />
</libxc-info>
</exchange-correlation>
<valence-configuration total-valence-charge="4">
<shell n="3" l="s" occupation="2" />
<shell n="3" l="p" occupation="2" />
</valence-configuration>
</pseudo-atom-spec>
<grid npts="457">
<annotation type="sampled from oncvpsp log grid"
 recipe="r(i:1..N) = r1*exp(a*(i-1)) + r=0; resampled"
 recipe-cont="r1: scale; a: step" scale="0.357142857143E-04"
 step="0.119285708653E-01" delta="0.500000000000E-02" rmax="44.1697227368" />
<grid-data>
  0.000000000000E+00  5.043762840785E-03  1.007452045417E-02  1.511338716874E-02
  2.012306398724E-02  2.524200484366E-02  3.055005847129E-02  3.567456681735E-02
  4.067657200651E-02  4.582995923277E-02  5.102395083885E-02  5.613299095240E-02
  6.175360044568E-02  6.713142577090E-02  7.297758014932E-02  7.839214240648E-02
  8.420843742015E-02  8.938366768873E-02  9.487695407084E-02  1.007078434632E-01
  1.068970840635E-01  1.121212442685E-01  1.176007140554E-01  1.233479706417E-01
  1.293761010181E-01  1.356988317486E-01  1.423305602273E-01  1.475161931447E-01
  1.528907580013E-01  1.584611382921E-01  1.642344683032E-01  1.702181422495E-01
  1.764198237449E-01  1.828474556171E-01  1.895092700805E-01  1.964137992801E-01
  2.035698862185E-01  2.109866960820E-01  2.160807588722E-01  2.212978127144E-01
  2.266408271046E-01  2.321128432342E-01  2.377169757212E-01  2.434564143831E-01
  2.493344260519E-01  2.553543564345E-01  2.615196320163E-01  2.678337620117E-01
  2.743003403617E-01  2.809230477794E-01  2.877056538450E-01  2.946520191514E-01
  3.017660975018E-01  3.090519381599E-01  3.165136881548E-01  3.241555946416E-01
  3.319820073186E-01  3.399973809033E-01  3.482062776679E-01  3.566133700359E-01
  3.652234432420E-01  3.740413980557E-01  3.830722535703E-01  3.923211500605E-01
  4.017933519076E-01  4.114942505960E-01  4.214293677824E-01  4.264865201958E-01
  4.316043584382E-01  4.367836107394E-01  4.420250140683E-01  4.473293142371E-01
  4.526972660080E-01  4.581296332001E-01  4.636271887985E-01  4.691907150641E-01
  4.748210036448E-01  4.805188556886E-01  4.862850819568E-01  4.921205029403E-01
  4.980259489756E-01  5.040022603633E-01  5.100502874877E-01  5.161708909375E-01
  5.223649416288E-01  5.286333209283E-01  5.349769207794E-01  5.413966438288E-01
  5.478934035547E-01  5.544681243974E-01  5.611217418902E-01  5.678552027928E-01
  5.746694652264E-01  5.815654988091E-01  5.885442847948E-01  5.956068162123E-01
  6.027540980069E-01  6.099871471830E-01  6.173069929492E-01  6.247146768645E-01
  6.322112529869E-01  6.397977880228E-01  6.474753614790E-01  6.552450658168E-01
  6.631080066066E-01  6.710653026859E-01  6.791180863181E-01  6.872675033539E-01
  6.955147133942E-01  7.038608899549E-01  7.123072206343E-01  7.208549072820E-01
  7.295051661693E-01  7.382592281634E-01  7.471183389013E-01  7.560837589681E-01
  7.651567640758E-01  7.743386452447E-01  7.836307089876E-01  7.930342774955E-01
  8.025506888254E-01  8.121812970913E-01  8.219274726564E-01  8.317906023283E-01
  8.417720895562E-01  8.518733546309E-01  8.620958348865E-01  8.724409849051E-01
  8.829102767240E-01  8.935052000447E-01  9.042272624452E-01  9.150779895945E-01
  9.260589254697E-01  9.371716325753E-01  9.484176921662E-01  9.597987044722E-01
  9.713162889259E-01  9.829720843930E-01  9.947677494057E-01  1.006704962399E+00
  1.018785421947E+00  1.031010847011E+00  1.043382977175E+00  1.055903572901E+00
  1.068574415776E+00  1.081397308765E+00  1.094374076470E+00  1.107506565388E+00
  1.120796644173E+00  1.134246203903E+00  1.147857158349E+00  1.161631444250E+00
  1.175571021581E+00  1.189677873840E+00  1.203954008326E+00  1.218401456426E+00
  1.233022273903E+00  1.247818541190E+00  1.262792363684E+00  1.277945872048E+00
  1.293281222513E+00  1.308800597183E+00  1.324506204349E+00  1.340400278801E+00
  1.356485082147E+00  1.372762903132E+00  1.389236057970E+00  1.405906890666E+00
  1.422777773354E+00  1.439851106634E+00  1.457129319914E+00  1.474614871753E+00
  1.492310250214E+00  1.510217973216E+00  1.528340588895E+00  1.546680675961E+00
  1.565240844073E+00  1.584023734202E+00  1.603032019012E+00  1.622268403240E+00
  1.641735624079E+00  1.661436451568E+00  1.681373688987E+00  1.701550173255E+00
  1.721968775334E+00  1.742632400638E+00  1.763543989446E+00  1.784706517319E+00
  1.806122995527E+00  1.827796471473E+00  1.849730029131E+00  1.871926789480E+00
  1.894389910954E+00  1.917122589886E+00  1.940128060964E+00  1.963409597696E+00
  1.986970512868E+00  2.010814159023E+00  2.034943928931E+00  2.059363256078E+00
  2.084075615151E+00  2.109084522533E+00  2.134393536803E+00  2.160006259245E+00
  2.185926334356E+00  2.212157450368E+00  2.238703339772E+00  2.265567779850E+00
  2.292754593208E+00  2.320267648326E+00  2.348110860106E+00  2.376288190428E+00
  2.404803648713E+00  2.433661292497E+00  2.462865228007E+00  2.492419610743E+00
  2.522328646072E+00  2.552596589825E+00  2.583227748903E+00  2.614226481890E+00
  2.645597199672E+00  2.677344366069E+00  2.709472498461E+00  2.741986168443E+00
  2.774890002464E+00  2.808188682494E+00  2.841886946684E+00  2.875989590044E+00
  2.910501465124E+00  2.945427482706E+00  2.980772612498E+00  3.016541883848E+00
  3.052740386455E+00  3.089373271092E+00  3.126445750345E+00  3.163963099349E+00
  3.201930656541E+00  3.240353824420E+00  3.279238070313E+00  3.318588927157E+00
  3.358411994283E+00  3.398712938214E+00  3.439497493473E+00  3.480771463394E+00
  3.522540720955E+00  3.564811209606E+00  3.607588944122E+00  3.650880011451E+00
  3.694690571589E+00  3.739026858448E+00  3.783895180749E+00  3.829301922918E+00
  3.875253545993E+00  3.921756588545E+00  3.968817667608E+00  4.016443479619E+00
  4.064640801374E+00  4.113416490991E+00  4.162777488883E+00  4.212730818749E+00
  4.263283588574E+00  4.314442991637E+00  4.366216307537E+00  4.418610903227E+00
  4.471634234066E+00  4.525293844875E+00  4.579597371013E+00  4.634552539465E+00
  4.690167169939E+00  4.746449175978E+00  4.803406566090E+00  4.861047444883E+00
  4.919380014222E+00  4.978412574392E+00  5.038153525285E+00  5.098611367588E+00
  5.159794703999E+00  5.221712240447E+00  5.284372787333E+00  5.347785260781E+00
  5.411958683910E+00  5.476902188117E+00  5.542625014375E+00  5.609136514547E+00
  5.676446152722E+00  5.744563506554E+00  5.813498268633E+00  5.883260247857E+00
  5.953859370831E+00  6.025305683281E+00  6.097609351480E+00  6.170780663698E+00
  6.244830031662E+00  6.319767992042E+00  6.395605207947E+00  6.472352470442E+00
  6.550020700087E+00  6.628620948488E+00  6.708164399870E+00  6.788662372669E+00
  6.870126321141E+00  6.952567836994E+00  7.035998651038E+00  7.120430634851E+00
  7.205875802469E+00  7.292346312099E+00  7.379854467844E+00  7.468412721458E+00
  7.558033674116E+00  7.648730078205E+00  7.740514839143E+00  7.833401017213E+00
  7.927401829420E+00  8.022530651373E+00  8.118801019189E+00  8.216226631419E+00
  8.314821350996E+00  8.414599207208E+00  8.515574397695E+00  8.617761290467E+00
  8.721174425953E+00  8.825828519064E+00  8.931738461293E+00  9.038919322829E+00
  9.147386354702E+00  9.257154990959E+00  9.368240850850E+00  9.480659741061E+00
  9.594427657953E+00  9.709560789849E+00  9.826075519327E+00  9.943988425559E+00
  1.006331628667E+01  1.018407608211E+01  1.030628499509E+01  1.042996041503E+01
  1.055511994001E+01  1.068178137929E+01  1.080996275584E+01  1.093968230891E+01
  1.107095849662E+01  1.120380999858E+01  1.133825571856E+01  1.147431478719E+01
  1.161200656463E+01  1.175135064341E+01  1.189236685113E+01  1.203507525334E+01
  1.217949615638E+01  1.232565011026E+01  1.247355791158E+01  1.262324060652E+01
  1.277471949380E+01  1.292801612773E+01  1.308315232126E+01  1.324015014911E+01
  1.339903195090E+01  1.355982033431E+01  1.372253817832E+01  1.388720863646E+01
  1.405385514010E+01  1.422250140178E+01  1.439317141861E+01  1.456588947563E+01
  1.474068014934E+01  1.491756831113E+01  1.509657913086E+01  1.527773808043E+01
  1.546107093740E+01  1.564660378865E+01  1.583436303411E+01  1.602437539052E+01
  1.621666789521E+01  1.641126790995E+01  1.660820312487E+01  1.680750156237E+01
  1.700919158111E+01  1.721330188009E+01  1.741986150265E+01  1.762889984068E+01
  1.784044663877E+01  1.805453199843E+01  1.827118638241E+01  1.849044061900E+01
  1.871232590643E+01  1.893687381731E+01  1.916411630312E+01  1.939408569875E+01
  1.962681472714E+01  1.986233650386E+01  2.010068454191E+01  2.034189275641E+01
  2.058599546949E+01  2.083302741512E+01  2.108302374411E+01  2.133602002904E+01
  2.159205226938E+01  2.185115689662E+01  2.211337077938E+01  2.237873122873E+01
  2.264727600347E+01  2.291904331551E+01  2.319407183530E+01  2.347240069732E+01
  2.375406950569E+01  2.403911833976E+01  2.432758775984E+01  2.461951881296E+01
  2.491495303871E+01  2.521393247518E+01  2.551649966488E+01  2.582269766086E+01
  2.613257003279E+01  2.644616087318E+01  2.676351480366E+01  2.708467698130E+01
  2.740969310508E+01  2.773860942234E+01  2.807147273541E+01  2.840833040823E+01
  2.874923037313E+01  2.909422113761E+01  2.944335179126E+01  2.979667201275E+01
  3.015423207691E+01  3.051608286183E+01  3.088227585617E+01  3.125286316645E+01
  3.162789752444E+01  3.200743229474E+01  3.239152148227E+01  3.278021974006E+01
  3.317358237694E+01  3.357166536547E+01  3.397452534985E+01  3.438221965405E+01
  3.479480628990E+01  3.521234396538E+01  3.563489209296E+01  3.606251079808E+01
  3.649526092765E+01  3.693320405879E+01  3.737640250749E+01  3.782491933758E+01
  3.827881836963E+01  3.873816419007E+01  3.920302216035E+01  3.967345842627E+01
  4.014953992739E+01  4.063133440652E+01  4.111891041939E+01  4.161233734443E+01
  4.211168539256E+01  4.261702561727E+01  4.312842992468E+01  4.364597108377E+01
  4.416972273678E+01
</grid-data>
</grid>
<valence-charge total-charge="4" is-unscreening-charge="yes"
 rescaled-to-z-pseudo="no">
<radfunc>
<data npts="457">
  2.325510675183E-02  2.326876666203E-02  2.330960820001E-02  2.337777116526E-02
  2.347259361681E-02  2.359736832781E-02  2.375654594291E-02  2.393903028781E-02
  2.414448559321E-02  2.438444245090E-02  2.465538535147E-02  2.495044880419E-02
  2.530784081221E-02  2.568202735111E-02  2.612465754078E-02  2.656802914686E-02
  2.708021766873E-02  2.756734018830E-02  2.811685373207E-02  2.873684467628E-02
  2.943647261849E-02  3.006044482339E-02  3.074795100906E-02  3.150557345851E-02
  3.234059923777E-02  3.326110003801E-02  3.427602180480E-02  3.510510516312E-02
  3.599743991292E-02  3.695798115399E-02  3.799209020908E-02  3.910557012736E-02
  4.030470446786E-02  4.159629965187E-02  4.298773118590E-02  4.448699406583E-02
  4.610275767467E-02  4.784442547963E-02  4.908048736022E-02  5.038025759385E-02
  5.174715199583E-02  5.318477809814E-02  5.469694597658E-02  5.628767957255E-02
  5.796122850122E-02  5.972208032983E-02  6.157497330046E-02  6.352490946093E-02
  6.557716815415E-02  6.773731980164E-02  7.001123989904E-02  7.240512312234E-02
  7.492549742039E-02  7.757923794461E-02  8.037358063865E-02  8.331613527988E-02
  8.641489773119E-02  8.967826112557E-02  9.311502566756E-02  9.673440669571E-02
  1.005460406091E-01  1.045599882189E-01  1.087867350463E-01  1.132371880469E-01
  1.179226682063E-01  1.228548984204E-01  1.280459860444E-01  1.307424844293E-01
  1.335083994762E-01  1.363453412229E-01  1.392549381259E-01  1.422388357148E-01
  1.452986951171E-01  1.484361914489E-01  1.516530120677E-01  1.549508546802E-01
  1.583314253021E-01  1.617964360634E-01  1.653476028560E-01  1.689866428161E-01
  1.727152716396E-01  1.765352007215E-01  1.804481341175E-01  1.844557653193E-01
  1.885597738387E-01  1.927618215938E-01  1.970635490898E-01  2.014665713859E-01
  2.059724738402E-01  2.105828076210E-01  2.152990849749E-01  2.201227742360E-01
  2.250552945637E-01  2.300980103907E-01  2.352522255626E-01  2.405191771466E-01
  2.459000288869E-01  2.513958642767E-01  2.570076792189E-01  2.627363742408E-01
  2.685827462260E-01  2.745474796237E-01  2.806311370926E-01  2.868341495325E-01
  2.931568054553E-01  2.995992396451E-01  3.061614210544E-01  3.128431398845E-01
  3.196439937973E-01  3.265633732093E-01  3.336004456207E-01  3.407541389380E-01
  3.480231237580E-01  3.554057945887E-01  3.629002499971E-01  3.705042716896E-01
  3.782153025497E-01  3.860304236798E-01  3.939463305215E-01  4.019593081588E-01
  4.100652059403E-01  4.182594115956E-01  4.265368250629E-01  4.348918322827E-01
  4.433182792651E-01  4.518094467782E-01  4.603580260563E-01  4.689560959701E-01
  4.775951021443E-01  4.862658385485E-01  4.949584321156E-01  5.036623309697E-01
  5.123662968552E-01  5.210584023587E-01  5.297260335001E-01  5.383558982327E-01
  5.469340413402E-01  5.554458661396E-01  5.638761633010E-01  5.722091469752E-01
  5.804284982688E-01  5.885174159457E-01  5.964586740440E-01  6.042346858984E-01
  6.118275738461E-01  6.192192436848E-01  6.263914627412E-01  6.333259402206E-01
  6.400044083423E-01  6.464087026431E-01  6.525208397584E-01  6.583230909804E-01
  6.637980499641E-01  6.689286931071E-01  6.736984313780E-01  6.780911527243E-01
  6.820912546400E-01  6.856836670264E-01  6.888538661156E-01  6.915878809322E-01
  6.938722945214E-01  6.956942429312E-01  6.970414156733E-01  6.979020620461E-01
  6.982650082321E-01  6.981196904341E-01  6.974562094189E-01  6.962654116529E-01
  6.945390016870E-01  6.922696895455E-01  6.894513755774E-01  6.860793735417E-01
  6.821506706555E-01  6.776642209883E-01  6.726212660437E-01  6.670256737498E-01
  6.608842845412E-01  6.542072509477E-01  6.470083552958E-01  6.393050783166E-01
  6.311177349633E-01  6.224680636537E-01  6.133790715709E-01  6.038754185841E-01
  5.939833636410E-01  5.837307092752E-01  5.731461863444E-01  5.622585166615E-01
  5.510961730739E-01  5.396874586175E-01  5.280603529125E-01  5.162424492413E-01
  5.042608816016E-01  4.921422570700E-01  4.799125923416E-01  4.675972545713E-01
  4.552209066354E-01  4.428074569054E-01  4.303800136031E-01  4.179608437774E-01
  4.055713369240E-01  3.932319732405E-01  3.809622964897E-01  3.687808914181E-01
  3.567053656592E-01  3.447523360253E-01  3.329374190764E-01  3.212752258362E-01
  3.097793605055E-01  2.984624230129E-01  2.873360152256E-01  2.764107506330E-01
  2.656962673046E-01  2.552012439167E-01  2.449334186333E-01  2.348996106234E-01
  2.251057439913E-01  2.155568738968E-01  2.062572146383E-01  1.972101694757E-01
  1.884183619707E-01  1.798836686245E-01  1.716072526001E-01  1.635895983222E-01
  1.558305467389E-01  1.483293310785E-01  1.410846128878E-01  1.340945181875E-01
  1.273566735750E-01  1.208682421161E-01  1.146259588782E-01  1.086261659683E-01
  1.028648469493E-01  9.733766052021E-02  9.203997335497E-02  8.696689200711E-02
  8.211329379738E-02  7.747385661214E-02  7.304308755051E-02  6.881535036839E-02
  6.478489167697E-02  6.094586586242E-02  5.729235870254E-02  5.381840966416E-02
  5.051803287309E-02  4.738523675544E-02  4.441404235681E-02  4.159850035084E-02
  3.893270675560E-02  3.641081738078E-02  3.402706103382E-02  3.177575151709E-02
  2.965129845211E-02  2.764821696994E-02  2.576113630975E-02  2.398480736986E-02
  2.231410925734E-02  2.074405488398E-02  1.926979565723E-02  1.788662531576E-02
  1.658998295941E-02  1.537545532352E-02  1.423877834749E-02  1.317583808669E-02
  1.218267101646E-02  1.125546377563E-02  1.039055239625E-02  9.584421064568E-03
  8.833700457122E-03  8.135165694050E-03  7.485733950182E-03  6.882461762602E-03
  6.322542071629E-03  5.803301030223E-03  5.322194614952E-03  4.876805069680E-03
  4.464837211260E-03  4.084114624518E-03  3.732575771979E-03  3.408270041841E-03
  3.109353755929E-03  2.834086157529E-03  2.580825397289E-03  2.348024533695E-03
  2.134227563041E-03  1.938065492249E-03  1.758252466458E-03  1.593581961918E-03
  1.442923053384E-03  1.305216764028E-03  1.179472504685E-03  1.064764608212E-03
  9.602289637216E-04  8.650597545477E-04  7.785063029331E-04  6.998700236722E-04
  6.285014882198E-04  5.637976001407E-04  5.051988821928E-04  4.521868748145E-04
  4.042816453229E-04  3.610394067160E-04  3.220502446083E-04  2.869359505112E-04
  2.553479593934E-04  2.269653892210E-04  2.014931799756E-04  1.786603294806E-04
  1.582182232289E-04  1.399390552954E-04  1.236143373306E-04  1.090534925688E-04
  9.608253174250E-05  8.454280776588E-05  7.428984604499E-05  6.519224727336E-05
  5.713065959139E-05  4.999681701584E-05  4.369264108381E-05  3.812940270292E-05
  3.322694125382E-05  2.891293805194E-05  2.512224134223E-05  2.179624007215E-05
  1.888228376342E-05  1.633314588255E-05  1.410652819193E-05  1.216460364734E-05
  1.047359549430E-05  9.003390303012E-06  7.727182770082E-06  6.621150204694E-06
  5.664154705945E-06  4.837471127607E-06  4.124539015337E-06  3.510736789627E-06
  2.983176534930E-06  2.530517841452E-06  2.142799230523E-06  1.811285777321E-06
  1.528331625562E-06  1.287256167595E-06  1.082232739846E-06  9.081887576731E-07
  7.607162852464E-07  6.359921049697E-07  5.307064170861E-07  4.419993634270E-07
  3.674046296789E-07  3.047994380367E-07  2.523602966688E-07  2.085239240299E-07
  1.719528147370E-07  1.415049595180E-07  1.162072746736E-07  9.523233664129E-08
  7.787805467808E-08  6.354994946187E-08  5.174573765407E-08  4.204195225499E-08
  3.408235602986E-08  2.756793049538E-08  2.224824604732E-08  1.791403989674E-08
  1.439084768062E-08  1.153355204199E-08  9.221727249422E-09  7.355673162027E-09
  5.853044655287E-09  4.645994114346E-09  3.678754879761E-09  2.905602696841E-09
  2.289140369668E-09  1.798858045759E-09  1.409927942960E-09  1.102197957165E-09
  8.593535330374E-10  6.682215100635E-10  5.181934376126E-10  4.007491447576E-10
  3.090642080627E-10  2.376874331214E-10  1.822765986379E-10  1.393825462422E-10
  1.062732719324E-10  8.079101918125E-11  6.123651895358E-11  4.627549451923E-11
  3.486337240724E-11  2.618483578299E-11  1.960544112253E-11  1.463300923599E-11
  1.088691136651E-11  8.073712361115E-12  5.967916256556E-12  4.396794094959E-12
  3.228467159571E-12  2.362577762846E-12  1.723009912940E-12  1.252228462488E-12
  9.068917969781E-13  6.544632001774E-13  4.706026406622E-13  3.371662834190E-13
  2.406775670600E-13  1.711628807125E-13  1.212681149715E-13  8.559079360515E-14
  6.017705671927E-14  4.214422993495E-14  2.939870309827E-14  2.042586307623E-14
  1.413428763635E-14  9.740640407508E-15  6.684974050286E-15  4.568659850378E-15
  3.109087212853E-15  2.106733870450E-15  1.421335574139E-15  9.547088688001E-16
  6.384245796005E-16  4.250002632430E-16  2.816346701322E-16  1.857703595485E-16
  1.219651870355E-16  7.969663392894E-17  5.182792903060E-17  3.354148949712E-17
  2.160080471140E-17  1.384205988047E-17  8.825684910217E-18  5.598687485890E-18
  3.533350900249E-18  2.218308310611E-18  1.385359684953E-18  8.605534380681E-19
  0.000000000000E+00  0.000000000000E+00  0.000000000000E+00  0.000000000000E+00
  0.000000000000E+00  0.000000000000E+00  0.000000000000E+00  0.000000000000E+00
  0.000000000000E+00  0.000000000000E+00  0.000000000000E+00  0.000000000000E+00
  0.000000000000E+00  0.000000000000E+00  0.000000000000E+00  0.000000000000E+00
  0.000000000000E+00  0.000000000000E+00  0.000000000000E+00  0.000000000000E+00
  0.000000000000E+00
</data>
</radfunc>
</valence-charge>
<pseudocore-charge matching-radius="1.18967787384"
 number-of-continuous-derivatives="4">
<annotation model-charge-form="Teter function with specified parameters" />
<radfunc>
<data npts="290">
  2.880329131411E+00  2.880232345151E+00  2.879943002135E+00  2.879460224019E+00
  2.878788883316E+00  2.877905939640E+00  2.876780305875E+00  2.875490897789E+00
  2.874040508521E+00  2.872348337539E+00  2.870439952227E+00  2.868364441138E+00
  2.865854357700E+00  2.863230832508E+00  2.860133369748E+00  2.857037149877E+00
  2.853468338826E+00  2.850082088293E+00  2.846271335990E+00  2.841983508971E+00
  2.837159696297E+00  2.832870663935E+00  2.828159183642E+00  2.822984418084E+00
  2.817301744312E+00  2.811062437169E+00  2.804213333685E+00  2.798641654339E+00
  2.792668132973E+00  2.786264707105E+00  2.779401495866E+00  2.772046704260E+00
  2.764166526028E+00  2.755725045793E+00  2.746684141362E+00  2.737003387197E+00
  2.726639960312E+00  2.715548550057E+00  2.707726303720E+00  2.699544443741E+00
  2.690987598847E+00  2.682039857177E+00  2.672684759460E+00  2.662905293592E+00
  2.652683890830E+00  2.642002423834E+00  2.630842206802E+00  2.619183997988E+00
  2.607008004874E+00  2.594293892343E+00  2.581020794190E+00  2.567167328347E+00
  2.552711616227E+00  2.537631306622E+00  2.521903604618E+00  2.505505306016E+00
  2.488412837789E+00  2.470602305124E+00  2.452049545640E+00  2.432730191382E+00
  2.412619739247E+00  2.391693630489E+00  2.369927339993E+00  2.347296476031E+00
  2.323776891180E+00  2.299344805156E+00  2.273976940237E+00  2.260934990145E+00
  2.247650670008E+00  2.234121279980E+00  2.220344182058E+00  2.206316805969E+00
  2.192036655305E+00  2.177501313904E+00  2.162708452476E+00  2.147655835486E+00
  2.132341328283E+00  2.116762904493E+00  2.100918653665E+00  2.084806789178E+00
  2.068425656403E+00  2.051773741126E+00  2.034849678224E+00  2.017652260602E+00
  2.000180448367E+00  1.982433378263E+00  1.964410373337E+00  1.946110952843E+00
  1.927534842366E+00  1.908681984173E+00  1.889552547756E+00  1.870146940581E+00
  1.850465819004E+00  1.830510099357E+00  1.810280969180E+00  1.789779898569E+00
  1.769008651637E+00  1.747969298050E+00  1.726664224614E+00  1.705096146891E+00
  1.683268120799E+00  1.661183554185E+00  1.638846218306E+00  1.616260259198E+00
  1.593430208894E+00  1.570360996426E+00  1.547057958581E+00  1.523526850355E+00
  1.499773855049E+00  1.475805593946E+00  1.451629135522E+00  1.427252004109E+00
  1.402682187961E+00  1.377928146641E+00  1.352998817662E+00  1.327903622303E+00
  1.302652470528E+00  1.277255764919E+00  1.251724403543E+00  1.226069781669E+00
  1.200303792246E+00  1.174438825050E+00  1.148487764417E+00  1.122463985456E+00
  1.096381348672E+00  1.070254192882E+00  1.044097326351E+00  1.017926016054E+00
  9.917559749670E-01  9.656033473143E-01  9.394846916771E-01  9.134169618960E-01
  8.874174856874E-01  8.615039409103E-01  8.356943294225E-01  8.100069484750E-01
  7.844603596028E-01  7.590733549798E-01  7.338649212195E-01  7.088542006127E-01
  6.840604498121E-01  6.595029959847E-01  6.352011904748E-01  6.111743600344E-01
  5.874417556994E-01  5.640224994118E-01  5.409355285076E-01  5.181995382157E-01
  4.958329223357E-01  4.738537122889E-01  4.522795147620E-01  4.311274481895E-01
  4.104140783483E-01  3.901553533652E-01  3.703665384640E-01  3.510621508068E-01
  3.322558948105E-01  3.139605983426E-01  2.961881502264E-01  2.789494395057E-01
  2.622542969401E-01  2.461114392178E-01  2.305284163873E-01  2.155115630194E-01
  2.010659536162E-01  1.871953627864E-01  1.739022307006E-01  1.611876343331E-01
  1.490512649776E-01  1.374914125072E-01  1.265049568143E-01  1.160873668342E-01
  1.062327075111E-01  9.693365501292E-02  8.818152044302E-02  7.996628223173E-02
  7.227662731383E-02  6.510000111893E-02  5.842266631318E-02  5.222977013700E-02
  4.650542008456E-02  4.123276756780E-02  3.639409910148E-02  3.197093443857E-02
  2.794413097742E-02  2.429399365647E-02  2.100038945014E-02  1.804286548295E-02
  1.540076969026E-02  1.305337287537E-02  1.097999094620E-02  9.160106062658E-03
  7.573485390567E-03  6.200296140879E-03  5.021215576647E-03  4.017534695484E-03
  3.171254343873E-03  2.465172592059E-03  1.882962294927E-03  1.409237884841E-03
  1.029610586101E-03  7.307314060865E-04  5.003214428964E-04  3.271892508242E-04
  2.012352195054E-04  1.134431460710E-04  5.585940723309E-05  2.156036468430E-05
  4.608856799136E-06  8.364461189366E-10  3.603402712934E-06  1.208563758194E-05
  2.284379145061E-05  3.392245879398E-05  4.393344290918E-05  5.197402326252E-05
  5.754630839100E-05  6.047928091083E-05  6.085501983093E-05  5.894042159253E-05
  5.512553928545E-05  4.986942522134E-05  4.365410291503E-05  3.694701933321E-05
  3.017204687506E-05  2.368882751722E-05  1.777998971243E-05  1.264553257564E-05
  8.403471458841E-06  5.095682742624E-06  2.697780272854E-06  1.131805778181E-06
  2.805225933536E-07  2.164956426508E-09  1.446099179137E-07  5.580984572436E-07
  1.105827071440E-06  1.671949044161E-06  2.166752470648E-06  2.529005851451E-06
  2.725667829591E-06  2.749332759184E-06  2.613917699853E-06  2.349181528994E-06
  1.994699173197E-06  1.593893535561E-06  1.188658729258E-06  8.149988039298E-07
  4.999676457093E-07  2.600418787479E-07  1.009042888251E-07  1.847520543008E-08
  9.164581415976E-10  3.125704667131E-08  9.025757523918E-08  1.591431166957E-07
  2.218878790784E-07  2.668216638290E-07  2.874357803890E-07  2.823806838091E-07
  2.547544391253E-07  2.108668005134E-07  1.587179011161E-07  1.064474341478E-07
  6.098923797707E-08  2.711227474343E-08  6.951752121457E-09  4.653339894513E-11
  0.000000000000E+00  0.000000000000E+00  0.000000000000E+00  0.000000000000E+00
  0.000000000000E+00  0.000000000000E+00  0.000000000000E+00  0.000000000000E+00
  0.000000000000E+00  0.000000000000E+00  0.000000000000E+00  0.000000000000E+00
  0.000000000000E+00  0.000000000000E+00  0.000000000000E+00  0.000000000000E+00
  0.000000000000E+00  0.000000000000E+00  0.000000000000E+00  0.000000000000E+00
  0.000000000000E+00  0.000000000000E+00
</data>
</radfunc>
</pseudocore-charge>
<semilocal-potentials set="scalar_relativistic">
<slps n="3" l="s" rc="1.60303201901" eref="-0.399799658320">
<radfunc>
<data npts="290">
  1.371878388538E+01  1.371659070320E+01  1.371003579650E+01  1.369910412737E+01
  1.368391401433E+01  1.366395593798E+01  1.363854482392E+01  1.360948157211E+01
  1.357684726318E+01  1.353884960172E+01  1.349609603019E+01  1.344971755658E+01
  1.339379406405E+01  1.333553680657E+01  1.326700981417E+01  1.319878511512E+01
  1.312048708846E+01  1.304653040856E+01  1.296369289632E+01  1.287097783946E+01
  1.276729541156E+01  1.267565898768E+01  1.257559317906E+01  1.246640466920E+01
  1.234736034162E+01  1.221768883475E+01  1.207658319169E+01  1.196274689572E+01
  1.184164403353E+01  1.171290431850E+01  1.157615296211E+01  1.143101317165E+01
  1.127710911058E+01  1.111406936509E+01  1.094153095894E+01  1.075914395495E+01
  1.056657667627E+01  1.036352157211E+01  1.022218671800E+01  1.007599374527E+01
  9.924878112007E+00  9.768784823085E+00  9.607669550431E+00  9.441499799118E+00
  9.270256113389E+00  9.093933315261E+00  8.912541766743E+00  8.726108644963E+00
  8.534679217608E+00  8.338318104148E+00  8.137110506163E+00  7.931163388024E+00
  7.720606586908E+00  7.505593828984E+00  7.286303626424E+00  7.062940027825E+00
  6.835733192724E+00  6.604939759204E+00  6.370842972201E+00  6.133752539149E+00
  5.894004179150E+00  5.651958831976E+00  5.408001494139E+00  5.162539651071E+00
  4.916001277281E+00  4.668832380487E+00  4.421494071145E+00  4.297908782703E+00
  4.174459145950E+00  4.051205445725E+00  3.928208182702E+00  3.805527925342E+00
  3.683225154887E+00  3.561360103702E+00  3.439992587360E+00  3.319181830926E+00
  3.198986289988E+00  3.079463467058E+00  2.960669724061E+00  2.842660091723E+00
  2.725488076779E+00  2.609205467999E+00  2.493862142169E+00  2.379505871260E+00
  2.266182132120E+00  2.153933920161E+00  2.042801568608E+00  1.932822575007E+00
  1.824031436778E+00  1.716459497740E+00  1.610134807590E+00  1.505081996458E+00
  1.401322166697E+00  1.298872804172E+00  1.197747711319E+00  1.097956964324E+00
  9.995068967135E-01  9.024001116883E-01  8.066355254175E-01  7.122084434504E-01
  6.191106722525E-01  5.273306676897E-01  4.368537220536E-01  3.476621909328E-01
  2.597357608840E-01  1.730517584552E-01  8.758550063245E-02  3.310686249081E-03
 -7.980017271620E-02 -1.617752816948E-01 -2.426430584207E-01 -3.224315954407E-01
 -4.011680943780E-01 -4.788782769872E-01 -5.555857789755E-01 -6.313115335309E-01
 -7.060731524699E-01 -7.798843138791E-01 -8.527541660615E-01 -9.246867584771E-01
 -9.956805111657E-01 -1.065727734834E+00 -1.134814214337E+00 -1.202918868665E+00
 -1.270013500722E+00 -1.336062650094E+00 -1.401023561683E+00 -1.464846282406E+00
 -1.527473897144E+00 -1.588842913767E+00 -1.648883805241E+00 -1.707521714634E+00
 -1.764677326151E+00 -1.820267902225E+00 -1.874208483093E+00 -1.926413241276E+00
 -1.976796978916E+00 -2.025276751067E+00 -2.071773592869E+00 -2.116214323061E+00
 -2.158533390691E+00 -2.198674726185E+00 -2.236593552404E+00 -2.272258106004E+00
 -2.305651214654E+00 -2.336771671593E+00 -2.365635346010E+00 -2.392275966012E+00
 -2.416745510924E+00 -2.439114151618E+00 -2.459469681934E+00 -2.477916391250E+00
 -2.494573338304E+00 -2.509571999628E+00 -2.523053282565E+00 -2.535163912902E+00
 -2.546052230380E+00 -2.555863451512E+00 -2.564734487657E+00 -2.572788436249E+00