<?xml version="1.0" encoding="UTF-8" ?>
<psml version="1.1" energy_unit="hartree" length_unit="bohr"
 uuid="640af1c0-be41-11e7-459c-543a7fcf7099"
 xmlns="http://esl.cecam.org/PSML/ns/1.1">
<provenance creator="ONCVPSP-3.3.0+psml-3.3.0-73 (scalar-relativistic)"
 date="2017-10-31">
<annotation action="semilocal-pseudopotential-generation"
 action-cont="projectors-generation" />
<input-file name="oncvpsp-input">
<![CDATA[# atsym z nc nv iexc psfile
Mg 12 1 3 4 upf
# n l f
1 0 2.0
2 0 2.0
2 1 6.0
3 0 2.0
# lmax
1
# l rc ep ncon nbas qcut
0 1.15 0.0 4 8 9.1
1 1.55 0.0 4 8 9.0
# lloc lpopt rc5 dvloc0
4 5 1.1 0.0
# l nproj debl
0 2 1.0
1 2 3.0
# icmod fcfact
0 4 1.5
# epsh1 epsh2 depsh
-12.0 12.0 0.02
# rlmax drl
4.0 0.01
 0
]]>
</input-file>
</provenance>
<pseudo-atom-spec atomic-label="Mg" atomic-number="12" z-pseudo="10"
 flavor="Hamann&apos;s oncvpsp" relativity="scalar" spin-dft="no"
 core-corrections="no">
<annotation pseudo-energy="-59.3414736292" />
<exchange-correlation>
<annotation oncvpsp-xc-code="4" oncvpsp-xc-type="GGA -- Perdew-Burke-Ernzerhof" />
<libxc-info number-of-functionals="2">
<functional name="Perdew, Burke &amp; Ernzerhof (GGA)" type="exchange" id="101" />
<functional name="Perdew, Burke &amp; Ernzerhof (GGA)" type="correlation"
 id="130" />
</libxc-info>
</exchange-correlation>
<valence-configuration total-valence-charge="10">
<shell n="2" l="s" occupation="2" />
<shell n="2" l="p" occupation="6" />
<shell n="3" l="s" occupation="2" />
</valence-configuration>
</pseudo-atom-spec>
<grid npts="457">
<annotation type="sampled from oncvpsp log grid"
 recipe="r(i:1..N) = r1*exp(a*(i-1)) + r=0; resampled"
 recipe-cont="r1: scale; a: step" scale="0.416666666667E-04"
 step="0.119285708653E-01" delta="0.500000000000E-02" rmax="44.1290725605" />
<grid-data>
  0.000000000000E+00  5.039120976724E-03  1.006524869499E-02  1.509947805150E-02
  2.010454437589E-02  2.521877418060E-02  3.052194271270E-02  3.564173488318E-02
  4.112680627824E-02  4.633723448486E-02  5.158871650650E-02  5.675430673824E-02
  6.243712872626E-02  6.787447925602E-02  7.291041759287E-02  7.831999673271E-02
  8.413093890731E-02  8.930140632003E-02  9.478963713363E-02  1.006151602554E-01
  1.067987047883E-01  1.120180571063E-01  1.174924840404E-01  1.232344513249E-01
  1.292570339063E-01  1.355739457160E-01  1.421995708979E-01  1.473804313857E-01
  1.527500499353E-01  1.583153037066E-01  1.640833204201E-01  1.700614874857E-01
  1.762574614640E-01  1.826791778729E-01  1.893348613508E-01  1.962330361902E-01
  2.033825372554E-01  2.107925212977E-01  2.158818959319E-01  2.210941484273E-01
  2.264322455469E-01  2.318992256834E-01  2.374982005883E-01  2.432323571433E-01
  2.491049591741E-01  2.551193493084E-01  2.612789508781E-01  2.675872698681E-01
  2.740478969118E-01  2.806645093349E-01  2.874408732483E-01  2.943808456920E-01
  3.014883768304E-01  3.087675122006E-01  3.162223950151E-01  3.238572685204E-01
  3.316764784115E-01  3.396844753063E-01  3.478858172781E-01  3.562851724504E-01
  3.648873216541E-01  3.736971611481E-01  3.827197054069E-01  3.919600899742E-01
  4.014235743866E-01  4.111155451665E-01  4.210415188890E-01  4.260940171157E-01
  4.312071453211E-01  4.363816310649E-01  4.416182106377E-01  4.469176291654E-01
  4.522806407154E-01  4.577080084040E-01  4.632005045048E-01  4.687589105589E-01
  4.743840174856E-01  4.800766256954E-01  4.858375452037E-01  4.916675957462E-01
  4.975676068951E-01  5.035384181779E-01  5.095808791960E-01  5.156958497464E-01
  5.218841999433E-01  5.281468103426E-01  5.344845720667E-01  5.408983869316E-01
  5.473891675747E-01  5.539578375856E-01  5.606053316367E-01  5.673325956163E-01
  5.741405867637E-01  5.810302738049E-01  5.880026370905E-01  5.950586687356E-01
  6.021993727604E-01  6.094257652335E-01  6.167388744164E-01  6.241397409093E-01
  6.316294178003E-01  6.392089708139E-01  6.468794784636E-01  6.546420322052E-01
  6.624977365917E-01  6.704477094308E-01  6.784930819439E-01  6.866349989273E-01
  6.948746189144E-01  7.032131143414E-01  7.116516717134E-01  7.201914917740E-01
  7.288337896753E-01  7.375797951514E-01  7.464307526932E-01  7.553879217255E-01
  7.644525767862E-01  7.736260077077E-01  7.829095198002E-01  7.923044340378E-01
  8.018120872462E-01  8.114338322932E-01  8.211710382807E-01  8.310250907401E-01
  8.409973918289E-01  8.510893605309E-01  8.613024328573E-01  8.716380620516E-01
  8.820977187962E-01  8.926828914217E-01  9.033950861188E-01  9.142358271522E-01
  9.252066570780E-01  9.363091369630E-01  9.475448466065E-01  9.589153847658E-01
  9.704223693830E-01  9.820674378156E-01  9.938522470694E-01  1.005778474034E+00
  1.017847815723E+00  1.030061989511E+00  1.042422733385E+00  1.054931806186E+00
  1.067590987860E+00  1.080402079715E+00  1.093366904671E+00  1.106487307527E+00
  1.119765155218E+00  1.133202337080E+00  1.146800765125E+00  1.160562374307E+00
  1.174489122798E+00  1.188582992272E+00  1.202845988179E+00  1.217280140037E+00
  1.231887501718E+00  1.246670151738E+00  1.261630193559E+00  1.276769755882E+00
  1.292090992953E+00  1.307596084868E+00  1.323287237886E+00  1.339166684741E+00
  1.355236684958E+00  1.371499525177E+00  1.387957519480E+00  1.404613009713E+00
  1.421468365830E+00  1.438525986220E+00  1.455788298054E+00  1.473257757631E+00
  1.490936850723E+00  1.508828092931E+00  1.526934030047E+00  1.545257238407E+00
  1.563800325268E+00  1.582565929171E+00  1.601556720321E+00  1.620775400965E+00
  1.640224705777E+00  1.659907402246E+00  1.679826291073E+00  1.699984206566E+00
  1.720384017045E+00  1.741028625249E+00  1.761920968752E+00  1.783064020377E+00
  1.804460788622E+00  1.826114318085E+00  1.848027689902E+00  1.870204022181E+00
  1.892646470447E+00  1.915358228093E+00  1.938342526830E+00  1.961602637152E+00
  1.985141868797E+00  2.008963571223E+00  2.033071134078E+00  2.057467987687E+00
  2.082157603539E+00  2.107143494781E+00  2.132429216719E+00  2.158018367319E+00
  2.183914587727E+00  2.210121562780E+00  2.236643021533E+00  2.263482737792E+00
  2.290644530645E+00  2.318132265013E+00  2.345949852193E+00  2.374101250419E+00
  2.402590465424E+00  2.431421551009E+00  2.460598609622E+00  2.490125792937E+00
  2.520007302452E+00  2.550247390082E+00  2.580850358763E+00  2.611820563068E+00
  2.643162409825E+00  2.674880358743E+00  2.706978923047E+00  2.739462670124E+00
  2.772336222165E+00  2.805604256831E+00  2.839271507913E+00  2.873342766008E+00
  2.907822879201E+00  2.942716753751E+00  2.978029354796E+00  3.013765707053E+00
  3.049930895538E+00  3.086530066285E+00  3.123568427080E+00  3.161051248205E+00
  3.198983863183E+00  3.237371669542E+00  3.276220129576E+00  3.315534771131E+00
  3.355321188385E+00  3.395585042645E+00  3.436332063157E+00  3.477568047915E+00
  3.519298864490E+00  3.561530450864E+00  3.604268816274E+00  3.647520042069E+00
  3.691290282574E+00  3.735585765965E+00  3.780412795157E+00  3.825777748699E+00
  3.871687081683E+00  3.918147326663E+00  3.965165094583E+00  4.012747075718E+00
  4.060900040627E+00  4.109630841114E+00  4.158946411208E+00  4.208853768142E+00
  4.259360013360E+00  4.310472333520E+00  4.362198001522E+00  4.414544377541E+00
  4.467518910071E+00  4.521129136992E+00  4.575382686636E+00  4.630287278875E+00
  4.685850726222E+00  4.742080934937E+00  4.798985906156E+00  4.856573737030E+00
  4.914852621874E+00  4.973830853337E+00  5.033516823577E+00  5.093919025460E+00
  5.155046053765E+00  5.216906606410E+00  5.279509485687E+00  5.342863599515E+00
  5.406977962710E+00  5.471861698262E+00  5.537524038641E+00  5.603974327105E+00
  5.671222019030E+00  5.739276683259E+00  5.808148003458E+00  5.877845779499E+00
  5.948379928853E+00  6.019760487999E+00  6.091997613855E+00  6.165101585222E+00
  6.239082804244E+00  6.313951797895E+00  6.389719219470E+00  6.466395850104E+00
  6.543992600305E+00  6.622520511509E+00  6.701990757647E+00  6.782414646738E+00
  6.863803622499E+00  6.946169265969E+00  7.029523297161E+00  7.113877576727E+00
  7.199244107648E+00  7.285635036939E+00  7.373062657383E+00  7.461539409271E+00
  7.551077882182E+00  7.641690816769E+00  7.733391106570E+00  7.826191799849E+00
  7.920106101447E+00  8.015147374664E+00  8.111329143160E+00  8.208665092878E+00
  8.307169073993E+00  8.406855102881E+00  8.507737364115E+00  8.609830212485E+00
  8.713148175034E+00  8.817705953135E+00  8.923518424572E+00  9.030600645667E+00
  9.138967853415E+00  9.248635467656E+00  9.359619093268E+00  9.471934522387E+00
  9.585597736656E+00  9.700624909496E+00  9.817032408410E+00  9.934836797311E+00
  1.005405483888E+01  1.017470349694E+01  1.029679993891E+01  1.042036153818E+01
  1.054540587663E+01  1.067195074715E+01  1.080001415612E+01  1.092961432599E+01
  1.106076969790E+01  1.119349893428E+01  1.132782092149E+01  1.146375477255E+01
  1.160131982982E+01  1.174053566778E+01  1.188142209579E+01  1.202399916094E+01
  1.216828715087E+01  1.231430659668E+01  1.246207827584E+01  1.261162321515E+01
  1.276296269373E+01  1.291611824606E+01  1.307111166501E+01  1.322796500499E+01
  1.338670058505E+01  1.354734099207E+01  1.370990908398E+01  1.387442799298E+01
  1.404092112890E+01  1.420941218245E+01  1.437992512864E+01  1.455248423018E+01
  1.472711404094E+01  1.490383940943E+01  1.508268548235E+01  1.526367770813E+01
  1.544684184063E+01  1.563220394272E+01  1.581979039003E+01  1.600962787471E+01
  1.620174340921E+01  1.639616433012E+01  1.659291830208E+01  1.679203332171E+01
  1.699353772157E+01  1.719746017423E+01  1.740382969632E+01  1.761267565267E+01
  1.782402776050E+01  1.803791609363E+01  1.825437108675E+01  1.847342353979E+01
  1.869510462227E+01  1.891944587774E+01  1.914647922827E+01  1.937623697901E+01
  1.960875182276E+01  1.984405684463E+01  2.008218552677E+01  2.032317175309E+01
  2.056704981413E+01  2.081385441190E+01  2.106362066484E+01  2.131638411282E+01
  2.157218072217E+01  2.183104689084E+01  2.209301945353E+01  2.235813568697E+01
  2.262643331521E+01  2.289795051500E+01  2.317272592118E+01  2.345079863223E+01
  2.373220821582E+01  2.401699471441E+01  2.430519865098E+01  2.459686103479E+01
  2.489202336721E+01  2.519072764761E+01  2.549301637939E+01  2.579893257594E+01
  2.610851976685E+01  2.642182200405E+01  2.673888386810E+01  2.705975047452E+01
  2.738446748021E+01  2.771308108997E+01  2.804563806305E+01  2.838218571981E+01
  2.872277194845E+01  2.906744521183E+01  2.941625455437E+01  2.976924960902E+01
  3.012648060433E+01  3.048799837158E+01  3.085385435204E+01  3.122410060427E+01
  3.159878981152E+01  3.197797528926E+01  3.236171099273E+01  3.275005152464E+01
  3.314305214294E+01  3.354076876865E+01  3.394325799388E+01  3.435057708980E+01
  3.476278401488E+01  3.517993742306E+01  3.560209667214E+01  3.602932183220E+01
  3.646167369419E+01  3.689921377852E+01  3.734200434386E+01  3.779010839599E+01
  3.824358969674E+01  3.870251277310E+01  3.916694292638E+01  3.963694624149E+01
  4.011258959639E+01  4.059394067155E+01  4.108106795961E+01  4.157404077512E+01
  4.207292926442E+01  4.257780441560E+01  4.308873806858E+01  4.360580292541E+01
  4.412907256051E+01
</grid-data>
</grid>
<valence-charge total-charge="10" is-unscreening-charge="yes"
 rescaled-to-z-pseudo="no">
<radfunc>
<data npts="457">
  2.573036881173E+01  2.573742901126E+01  2.575852475071E+01  2.579368812274E+01
  2.584251173168E+01  2.590659366022E+01  2.598807448200E+01  2.608111466827E+01
  2.619627594952E+01  2.632029735464E+01  2.645948274587E+01  2.661003760770E+01
  2.679097780158E+01  2.697876776050E+01  2.716515929493E+01  2.737836438545E+01
  2.762190431798E+01  2.785080867523E+01  2.810588351584E+01  2.838970877340E+01
  2.870500430233E+01  2.898179953491E+01  2.928203145901E+01  2.960719519186E+01
  2.995877192235E+01  3.033819798740E+01  3.074682615288E+01  3.107320240095E+01
  3.141714401959E+01  3.177902324672E+01  3.215911759189E+01  3.255758861216E+01
  3.297445791842E+01  3.340958022257E+01  3.386261326138E+01  3.433298447102E+01
  3.481985434169E+01  3.532207645663E+01  3.566469699492E+01  3.601294452890E+01
  3.636619520281E+01  3.672373399447E+01  3.708474798713E+01  3.744831953602E+01
  3.781341939174E+01  3.817889985517E+01  3.854348805227E+01  3.890577943246E+01
  3.926423161030E+01  3.961715868811E+01  3.996272621553E+01  4.029894696197E+01
  4.062367769755E+01  4.093461719936E+01  4.122930571951E+01  4.150512617163E+01
  4.175930731039E+01  4.198892919477E+01  4.219093123842E+01  4.236212315888E+01
  4.249919914015E+01  4.259875551830E+01  4.265731228689E+01  4.267133869441E+01
  4.263728317026E+01  4.255160776443E+01  4.241082721960E+01  4.231870845403E+01
  4.221155270911E+01  4.208895937919E+01  4.195054017026E+01  4.179592084649E+01
  4.162474303703E+01  4.143666609882E+01  4.123136903042E+01  4.100855243094E+01
  4.076794049755E+01  4.050928305419E+01  4.023235760307E+01  3.993697138986E+01
  3.962296347249E+01  3.929020678265E+01  3.893861016793E+01  3.856812040221E+01
  3.817872415020E+01  3.777044987215E+01  3.734336965301E+01  3.689760094050E+01
  3.643330817496E+01  3.595070429404E+01  3.545005209444E+01  3.493166543241E+01
  3.439591024483E+01  3.384320537248E+01  3.327402316691E+01  3.268888986312E+01
  3.208838570024E+01  3.147314477338E+01  3.084385460063E+01  3.020125539036E+01
  2.954613899543E+01  2.887934754257E+01  2.820177172714E+01  2.751434876573E+01
  2.681806000165E+01  2.611392816089E+01  2.540301425943E+01  2.468641416593E+01
  2.396525482720E+01  2.324069016786E+01  2.251389667904E+01  2.178606871535E+01
  2.105841352302E+01  2.033214602647E+01  1.960848340451E+01  1.888863949128E+01
  1.817381904096E+01  1.746521189865E+01  1.676398712336E+01  1.607128711158E+01
  1.538822177270E+01  1.471586280912E+01  1.405523815533E+01  1.340732663092E+01
  1.277305286218E+01  1.215328252622E+01  1.154881796982E+01  1.096039425247E+01
  1.038867565999E+01  9.834252730531E+00  9.297639829859E+00  8.779273306949E+00
  8.279510254270E+00  7.798627890028E+00  7.336823571871E+00  6.894215443465E+00
  6.470843706986E+00  6.066672506108E+00  5.681592395700E+00  5.315423366292E+00
  4.967918383674E+00  4.638767396890E+00  4.327601761560E+00  4.033999020076E+00
  3.757487975902E+00  3.497553996062E+00  3.253644474063E+00  3.025174384951E+00
  2.811531865025E+00  2.612083750869E+00  2.426181015755E+00  2.253164046022E+00
  2.092367854104E+00  1.943127607834E+00  1.804784148465E+00  1.676687867417E+00
  1.558202238987E+00  1.448706947617E+00  1.347600630704E+00  1.254303229326E+00
  1.168257956128E+00  1.088932893371E+00  1.015822239022E+00  9.484472222093E-01
  8.863567116573E-01  8.291275417895E-01  7.763645811485E-01  7.277005667529E-01
  6.827957261751E-01  6.413372067364E-01  6.030383285441E-01  5.676376754468E-01
  5.348980356717E-01  5.046052022252E-01  4.765666423470E-01  4.506100456149E-01
  4.265817618128E-01  4.043445725322E-01  3.837732669958E-01  3.647493961829E-01
  3.471610830329E-01  3.309027536516E-01  3.158749005079E-01  3.019838356435E-01
  2.891414358676E-01  2.772648829522E-01  2.662764029388E-01  2.561030096002E-01
  2.466762575956E-01  2.379320106438E-01  2.298102289720E-01  2.222547784038E-01
  2.152132610297E-01  2.086368649240E-01  2.024802283917E-01  1.967013131553E-01
  1.912612809065E-01  1.861243685971E-01  1.812577593926E-01  1.766314479217E-01
  1.722180999666E-01  1.679929078358E-01  1.639334432821E-01  1.600195100230E-01
  1.562329978109E-01  1.525577397076E-01  1.489793738442E-01  1.454852105769E-01
  1.420641056170E-01  1.387063394411E-01  1.354035030830E-01  1.321483902576E-01
  1.289348956677E-01  1.257579192792E-01  1.226132763171E-01  1.194976127147E-01
  1.164083257478E-01  1.133434895904E-01  1.103017855377E-01  1.072824366575E-01
  1.042851466424E-01  1.013100426535E-01  9.835762195478E-02  9.542870215692E-02
  9.252437489387E-02  8.964596277135E-02  8.679497943275E-02  8.397309259672E-02
  8.118208992791E-02  7.842384760793E-02  7.570030147919E-02  7.301342063879E-02
  7.036518336376E-02  6.775755525277E-02  6.519246947286E-02  6.267180900330E-02
  6.019739077183E-02  5.777095158227E-02  5.539413573571E-02  5.306848425150E-02
  5.079542559800E-02  4.857626784718E-02  4.641219217151E-02  4.430424760584E-02
  4.225334700146E-02  4.026026410381E-02  3.832563168956E-02  3.644994070239E-02
  3.463354033053E-02  3.287663897163E-02  3.117930603295E-02  2.954147451612E-02
  2.796294433643E-02  2.644338632666E-02  2.498234687426E-02  2.357925313976E-02
  2.223341880208E-02  2.094405027552E-02  1.971025333343E-02  1.853104008782E-02
  1.740533625490E-02  1.633198864409E-02  1.530977280548E-02  1.433740077071E-02
  1.341352882314E-02  1.253676523470E-02  1.170567790966E-02  1.091880187866E-02
  1.017464659067E-02  9.471702955130E-03  8.808450091959E-03  8.183361752511E-03
  7.594912380556E-03  7.041582788250E-03  6.521865427927E-03  6.034269246341E-03
  5.577324113464E-03  5.149584823110E-03  4.749634667473E-03  4.376088591920E-03
  4.027595940332E-03  3.702842804537E-03  3.400553994314E-03  3.119494646758E-03
  2.858471495673E-03  2.616333823096E-03  2.391974115995E-03  2.184328451785E-03
  1.992376636507E-03  1.815142119375E-03  1.651691706981E-03  1.501135099767E-03
  1.362624272475E-03  1.235352719180E-03  1.118554582321E-03  1.011503683771E-03
  9.135124745903E-04  8.239309186742E-04  7.421453240111E-04  6.675771338648E-04
  5.996816887826E-04  5.379469690159E-04  4.818923257040E-04  4.310672080381E-04
  3.850498925953E-04  3.434462201277E-04  3.058883442926E-04  2.720334961327E-04
  2.415627675362E-04  2.141799164277E-04  1.896101960479E-04  1.675992103575E-04
  1.479117973397E-04  1.303309417642E-04  1.146567187965E-04  1.007052696855E-04
  8.830781062569E-05  7.730967576293E-05  6.756939518867E-05  5.895780863559E-05
  5.135721546402E-05  4.466056138336E-05  3.877066221218E-05  3.359946483264E-05
  2.906734534058E-05  2.510244423859E-05  2.164003836594E-05  1.862194910797E-05
  1.599598628230E-05  1.371542696149E-05  1.173852836349E-05  1.002807382466E-05
  8.550950765944E-06  7.277759472579E-06  6.182451431580E-06  5.241995909946E-06
  4.436073409597E-06  3.746794602522E-06  3.158443330635E-06  2.657242248791E-06
  2.231139695305E-06  1.869616391078E-06  1.563510594898E-06  1.304860377529E-06
  1.086761719500E-06  9.032411859786E-07  7.491419854595E-07  6.200222762662E-07
  5.120646448332E-07  4.219957415882E-07  3.470151230224E-07  2.847324114779E-07
  2.331119465929E-07  1.904241636261E-07  1.552029935397E-07  1.262086373251E-07
  1.023951222752E-07  8.288210049190E-08  6.693039966091E-08  5.392088292086E-08
  4.333621841485E-08  3.474519982841E-08  2.778929690332E-08  2.217114963062E-08
  1.764475165222E-08  1.400709744813E-08  1.109109428200E-08  8.759563761430E-09
  6.900179391973E-09  5.421205818967E-09  4.247922718056E-09  3.319631670389E-09
  2.587157997205E-09  2.010771581532E-09  1.558461316807E-09  1.204507131557E-09
  9.283016760296E-10  7.133808430948E-10  5.466284452736E-10  4.176256874671E-10
  3.181206570069E-10  2.415969870196E-10  1.829242154364E-10  1.380752322377E-10
  1.038986462349E-10  7.793596749611E-11  5.827524362730E-11  4.343425280252E-11
  3.226758354962E-11  2.389295574753E-11  1.763298952590E-11  1.296933520780E-11
  9.506660950085E-12  6.944474978235E-12  5.055153134191E-12  3.666864236489E-12
  2.650347709255E-12  1.908710408196E-12  1.369581267098E-12  9.791006150724E-13
  6.973318781581E-13  4.947719583816E-13  3.497070873394E-13  2.462168517001E-13
  1.726732370054E-13  1.206162671233E-13  8.391503037429E-14  5.814412138912E-14
  4.012203528853E-14  2.757082906071E-14  1.886621573689E-14  1.285481920311E-14
  8.721098452897E-15  5.890850560311E-15  3.961536898106E-15  2.652194024051E-15
  1.767581662628E-15  1.172634660568E-15  7.743390431261E-16  5.089330260325E-16
  3.329099050981E-16  2.167228312880E-16  1.404007532440E-16  9.050981606512E-17
  5.805742045659E-17  3.705353187450E-17  2.352800055189E-17  1.486268351984E-17
  9.339838949917E-18  5.838273564757E-18  3.629985337972E-18  2.244774716400E-18
  1.380574549702E-18  8.443793073003E-19  5.135431982523E-19  3.105623301574E-19
  1.867339689609E-19  1.116273562031E-19  6.633769076080E-20  3.918877894664E-20
  2.301143405147E-20  1.342996016953E-20  7.789740332326E-21  4.490101724300E-21
  2.571826279797E-21  1.463680171568E-21  8.276298797769E-22  4.649196346806E-22
  0.000000000000E+00  0.000000000000E+00  0.000000000000E+00  0.000000000000E+00
  0.000000000000E+00  0.000000000000E+00  0.000000000000E+00  0.000000000000E+00
  0.000000000000E+00
</data>
</radfunc>
</valence-charge>
<semilocal-potentials set="scalar_relativistic">
<slps n="2" l="s" rc="1.16056237431" eref="-2.93426666705">
<radfunc>
<data npts="256">
 -2.047229126229E+01 -2.047271092747E+01 -2.047392181094E+01 -2.047580299387E+01
 -2.047814243278E+01 -2.048075966775E+01 -2.048339900983E+01 -2.048555314381E+01
 -2.048708161825E+01 -2.048748228045E+01 -2.048658932811E+01 -2.048423964625E+01
 -2.047979263185E+01 -2.047359589464E+01 -2.046610908127E+01 -2.045618038784E+01
 -2.044336255963E+01 -2.043013186237E+01 -2.041427890740E+01 -2.039551059461E+01
 -2.037352970688E+01 -2.035343091823E+01 -2.033093110245E+01 -2.030587663467E+01
 -2.027811361226E+01 -2.024748738586E+01 -2.021384178722E+01 -2.018653075800E+01
 -2.015736375429E+01 -2.012627079345E+01 -2.009317982920E+01 -2.005801624883E+01
 -2.002070229451E+01 -1.998115638961E+01 -1.993929234266E+01 -1.989501839204E+01
 -1.984823604216E+01 -1.979883862797E+01 -1.976439708819E+01 -1.972870425940E+01
 -1.969171993519E+01 -1.965340074972E+01 -1.961369970377E+01 -1.957256561786E+01
 -1.952994250434E+01 -1.948576885106E+01 -1.943997681084E+01 -1.939249129382E+01
 -1.934322896393E+01 -1.929209714712E+01 -1.923899266774E+01 -1.918380064028E+01
 -1.912639325853E+01 -1.906662864022E+01 -1.900434980446E+01 -1.893938387840E+01
 -1.887154164702E+01 -1.880061757288E+01 -1.872639041606E+01 -1.864862457476E+01
 -1.856707223856E+01 -1.848147639729E+01 -1.839157467732E+01 -1.829710388883E+01
 -1.819780506998E+01 -1.809342872259E+01 -1.798373986568E+01 -1.792683490249E+01
 -1.786852250605E+01 -1.780877922159E+01 -1.774758315419E+01 -1.768491400785E+01
 -1.762075310245E+01 -1.755508336907E+01 -1.748788932528E+01 -1.741915703229E+01
 -1.734887403679E+01 -1.727702930059E+01 -1.720361312177E+01 -1.712861705120E+01
 -1.705203380828E+01 -1.697385720002E+01 -1.689408204698E+01 -1.681270411950E+01
 -1.672972008720E+01 -1.664512748400E+01 -1.655892469048E+01 -1.647111093470E+01
 -1.638168631181E+01 -1.629065182229E+01 -1.619800942799E+01 -1.610376212448E+01
 -1.600791402774E+01 -1.591047047284E+01 -1.581143812182E+01 -1.571082507762E+01
 -1.560864100083E+01 -1.550489722576E+01 -1.539960687225E+01 -1.529278494959E+01
 -1.518444844913E+01 -1.507461642187E+01 -1.496331003794E+01 -1.485055262449E+01
 -1.473636967937E+01 -1.462078885770E+01 -1.450383992920E+01 -1.438555470431E+01
 -1.426596692783E+01 -1.414511213911E+01 -1.402302749891E+01 -1.389975158346E+01
 -1.377532414728E+01 -1.364978585769E+01 -1.352317800454E+01 -1.339554219070E+01
 -1.326692001007E+01 -1.313735272170E+01 -1.300688093072E+01 -1.287554428880E+01
 -1.274338122951E+01 -1.261042875629E+01 -1.247672230371E+01 -1.234229569550E+01
 -1.220718122552E+01 -1.207140989079E+01 -1.193501180750E+01 -1.179801684313E+01
 -1.166045549783E+01 -1.152236006791E+01 -1.138376612155E+01 -1.124471431210E+01
 -1.110525254727E+01 -1.096543852209E+01 -1.082534261107E+01 -1.068505109898E+01
 -1.054466971207E+01 -1.040432739249E+01 -1.026418023858E+01 -1.012441551559E+01
 -9.985255624719E+00 -9.846961906118E+00 -9.709838144383E+00 -9.574233644319E+00
 -9.440545751533E+00 -9.309221706914E+00 -9.180759746700E+00 -9.055709390317E+00
 -8.934670896160E+00 -8.818293910208E+00 -8.707275417574E+00 -8.602356696580E+00
 -8.501294063651E+00 -8.401173508743E+00 -8.302089295390E+00 -8.204071497783E+00
 -8.107147871393E+00 -8.011342671230E+00 -7.916675714631E+00 -7.823161462195E+00
 -7.730808208187E+00 -7.639617397928E+00 -7.549583121499E+00 -7.460691845774E+00
 -7.372922456641E+00 -7.286246683577E+00 -7.200629966778E+00 -7.116032803641E+00
 -7.032412581646E+00 -6.949725878219E+00 -6.867931196076E+00 -6.786992113327E+00
 -6.706880860476E+00 -6.627582376443E+00 -6.549098909723E+00 -6.471455530501E+00
 -6.394701802969E+00 -6.318876942410E+00 -6.243949269653E+00 -6.169910620062E+00
 -6.096749853036E+00 -6.024456532063E+00 -5.953020298625E+00 -5.882430916212E+00
 -5.812678276233E+00 -5.743752407995E+00 -5.675643483216E+00 -5.608341823525E+00
 -5.541837900258E+00 -5.476122330098E+00 -5.411185864966E+00 -5.347019377814E+00
 -5.283613846834E+00 -5.220960341092E+00 -5.159050010118E+00 -5.097874078793E+00
 -5.037423847450E+00 -4.977690695913E+00 -4.918666089622E+00 -4.860341586040E+00
 -4.802708840022E+00 -4.745759607451E+00 -4.689485747026E+00 -4.633879220443E+00
 -4.578932091402E+00 -4.524636523862E+00 -4.470984779937E+00 -4.417969217685E+00
 -4.365582288958E+00 -4.313816537410E+00 -4.262664596686E+00 -4.212119188798E+00
 -4.162173122660E+00 -4.112819292763E+00 -4.064050677959E+00 -4.015860340329E+00
 -3.968241424123E+00 -3.921187154738E+00 -3.874690837743E+00 -3.828745857927E+00
 -3.783345678372E+00 -3.738483839532E+00 -3.694153958341E+00 -3.650349727322E+00
 -3.607064913706E+00 -3.564293358565E+00 -3.522028975948E+00 -3.480265752033E+00
 -3.438997744278E+00 -3.398219080587E+00 -3.357923958485E+00 -3.318106644294E+00
 -3.278761472326E+00 -3.239882844081E+00 -3.201465227452E+00 -3.163503155945E+00
 -3.125991227897E+00 -3.088924105714E+00 -3.052296515111E+00 -3.016103244360E+00
 -2.980339143551E+00 -2.944999123858E+00 -2.910078156809E+00 -2.875571273576E+00
 -2.841473564260E+00 -2.807780177192E+00 -2.774486318236E+00 -2.741587250107E+00
 -2.709078291691E+00 -2.676954817373E+00 -2.645212256377E+00 -2.613846092109E+00
 -2.582851861513E+00 -2.552225154429E+00 -2.521961612962E+00 -2.492056930904E+00
</data>
</radfunc>
</slps>
<slps n="2" l="p" rc="1.56380032527" eref="-1.71302519477">
<radfunc>
<data npts="256">
 -2.584330114160E+01 -2.584364625751E+01 -2.584463416532E+01 -2.584614293885E+01
 -2.584796375037E+01 -2.584989753919E+01 -2.585166335822E+01 -2.585281382057E+01
 -2.585309071754E+01 -2.585213191789E+01 -2.584969879812E+01 -2.584566566605E+01
 -2.583917105800E+01 -2.583082059021E+01 -2.582116673423E+01 -2.580872270793E+01
 -2.579298291800E+01 -2.577695735701E+01 -2.575793324807E+01 -2.573556412712E+01
 -2.570949123994E+01 -2.568571779057E+01 -2.565914223088E+01 -2.562956432185E+01
 -2.559677768377E+01 -2.556056853838E+01 -2.552071404095E+01 -2.548829063079E+01
 -2.545358174112E+01 -2.541647875003E+01 -2.537686727070E+01 -2.533462628917E+01
 -2.528962719470E+01 -2.524173268225E+01 -2.519079549838E+01 -2.513665699205E+01
 -2.507914542059E+01 -2.501807394655E+01 -2.497528180905E+01 -2.493075166689E+01
 -2.488441363447E+01 -2.483619287212E+01 -2.478600901672E+01 -2.473377553626E+01
 -2.467939899996E+01 -2.462277825665E+01 -2.456380351554E+01 -2.450235532605E+01
 -2.443830345795E+01 -2.437150568880E+01 -2.430180651444E+01 -2.422903580906E+01
 -2.415300747552E+01 -2.407351814268E+01 -2.399034598506E+01 -2.390324975865E+01
 -2.381196816400E+01 -2.371621965936E+01 -2.361570284988E+01 -2.351009756750E+01
 -2.339906672748E+01 -2.328225899690E+01 -2.315931223841E+01 -2.302985760318E+01
 -2.289352404855E+01 -2.274994296350E+01 -2.259875251634E+01 -2.252019348391E+01
 -2.243960131211E+01 -2.235693413194E+01 -2.227215097635E+01 -2.218521178299E+01
 -2.209607737267E+01 -2.200470940416E+01 -2.191107030653E+01 -2.181512319149E+01
 -2.171683174809E+01 -2.161616012355E+01 -2.151307279361E+01 -2.140753442673E+01
 -2.129950974628E+01 -2.118896339504E+01 -2.107585980601E+01 -2.096016308355E+01
 -2.084183689829E+01 -2.072084439883E+01 -2.059714814294E+01 -2.047071005017E+01
 -2.034149137745E+01 -2.020945271871E+01 -2.007455402902E+01 -1.993675467337E+01
 -1.979601349998E+01 -1.965228893754E+01 -1.950553911583E+01 -1.935572200898E+01
 -1.920279560056E+01 -1.904671806978E+01 -1.888744799822E+01 -1.872494459669E+01
 -1.855916795191E+01 -1.839007929309E+01 -1.821764127869E+01 -1.804181830402E+01
 -1.786257683050E+01 -1.767988573788E+01 -1.749371670103E+01 -1.730404459302E+01
 -1.711084791699E+01 -1.691410926909E+01 -1.671381583557E+01 -1.650995992706E+01
 -1.630253955372E+01 -1.609155904503E+01 -1.587702971848E+01 -1.565897060163E+01
 -1.543740921269E+01 -1.521238240468E+01 -1.498393727927E+01 -1.475213217638E+01
 -1.451703774629E+01 -1.427873811180E+01 -1.403733212787E+01 -1.379293474719E+01
 -1.354567850003E+01 -1.329571509657E+01 -1.304321715952E+01 -1.278838009322E+01
 -1.253142409293E+01 -1.227259629414E+01 -1.201217305573E+01 -1.175046236265E+01
 -1.148780632312E+01 -1.122458372153E+01 -1.096121257185E+01 -1.069815259679E+01
 -1.043590753657E+01 -1.017502716816E+01 -9.916108892394E+00 -9.659798724336E+00
 -9.406791502554E+00 -9.157830118076E+00 -8.913703554556E+00 -8.675243529840E+00
 -8.443319536620E+00 -8.218832097296E+00 -8.002704076368E+00 -7.795869932865E+00
 -7.599262845786E+00 -7.413799706765E+00 -7.240364080106E+00 -7.079786844595E+00
 -6.932823374942E+00 -6.800130401449E+00 -6.682250286029E+00 -6.579584245243E+00
 -6.492369904052E+00 -6.420659141371E+00 -6.364297701111E+00 -6.322907063998E+00
 -6.295869376513E+00 -6.282316103271E+00 -6.281121005573E+00 -6.290897931649E+00
 -6.310003758945E+00 -6.336546662543E+00 -6.368399711684E+00 -6.403219639490E+00
 -6.438470516841E+00 -6.471452021637E+00 -6.499332061717E+00 -6.519183710360E+00
 -6.528026762335E+00 -6.522874711633E+00 -6.500788561597E+00 -6.458939912134E+00
 -6.394681507523E+00 -6.318876942410E+00 -6.243949269653E+00 -6.169910620062E+00
 -6.096749853036E+00 -6.024456532063E+00 -5.953020298625E+00 -5.882430916212E+00
 -5.812678276233E+00 -5.743752407995E+00 -5.675643483216E+00 -5.608341823525E+00
 -5.541837900258E+00 -5.476122330098E+00 -5.411185864966E+00 -5.347019377814E+00
 -5.283613846834E+00 -5.220960341092E+00 -5.159050010118E+00 -5.097874078793E+00
 -5.037423847450E+00 -4.977690695913E+00 -4.918666089622E+00 -4.860341586040E+00