<?xml version="1.0" encoding="UTF-8" ?>
<psml version="1.1" energy_unit="hartree" length_unit="bohr"
 uuid="3cff85a0-be41-11e7-6c5c-1b1fe64d18ef"
 xmlns="http://esl.cecam.org/PSML/ns/1.1">
<provenance creator="ONCVPSP-3.3.0+psml-3.3.0-73 (scalar-relativistic)"
 date="2017-10-31">
<annotation action="semilocal-pseudopotential-generation"
 action-cont="projectors-generation" />
<input-file name="oncvpsp-input">
<![CDATA[# atsym z nc nv iexc psfile
O 8 1 2 4 upf
# n l f
1 0 2.0
2 0 2.0
2 1 4.0
# lmax
2
# l rc ep ncon nbas qcut
0 1.35 0.0 4 8 8.4
1 1.45 0.0 4 8 9.3
2 1.25 0.1 4 8 6.0
# lloc lpopt rc5 dvloc0
4 5 1.2 0.0
# l nproj debl
0 2 1.0
1 2 1.0
2 1 1.0
# icmod fcfact
3 4 1.5
# epsh1 epsh2 depsh
-12.0 12.0 0.02
# rlmax drl
6.0 0.01
 0
]]>
</input-file>
</provenance>
<pseudo-atom-spec atomic-label="O" atomic-number="8" z-pseudo="6"
 flavor="Hamann&apos;s oncvpsp" relativity="scalar" spin-dft="no"
 core-corrections="yes">
<annotation pseudo-energy="-15.7566683212" />
<exchange-correlation>
<annotation oncvpsp-xc-code="4" oncvpsp-xc-type="GGA -- Perdew-Burke-Ernzerhof" />
<libxc-info number-of-functionals="2">
<functional name="Perdew, Burke &amp; Ernzerhof (GGA)" type="exchange" id="101" />
<functional name="Perdew, Burke &amp; Ernzerhof (GGA)" type="correlation"
 id="130" />
</libxc-info>
</exchange-correlation>
<valence-configuration total-valence-charge="6">
<shell n="2" l="s" occupation="2" />
<shell n="2" l="p" occupation="4" />
</valence-configuration>
</pseudo-atom-spec>
<grid npts="457">
<annotation type="sampled from oncvpsp log grid"
 recipe="r(i:1..N) = r1*exp(a*(i-1)) + r=0; resampled"
 recipe-cont="r1: scale; a: step" scale="0.625000000000E-04"
 step="0.119285708653E-01" delta="0.500000000000E-02" rmax="44.1243818316" />
<grid-data>
  0.000000000000E+00  5.038585340028E-03  1.006417880273E-02  1.509787304249E-02
  2.010240735005E-02  2.521609353432E-02  3.051869836261E-02  3.563794632140E-02
  4.112243467717E-02  4.633230903787E-02  5.158323284976E-02  5.674827400167E-02
  6.243049193037E-02  6.786726449336E-02  7.290266753181E-02  7.831167165686E-02
  8.412199615352E-02  8.929191396799E-02  9.477956140646E-02  1.006044653004E-01
  1.067873525493E-01  1.120061500728E-01  1.174799950991E-01  1.232213520374E-01
  1.292432944444E-01  1.355595347938E-01  1.421844557004E-01  1.473647654853E-01
  1.527338132677E-01  1.582984754767E-01  1.640658790751E-01  1.700434106874E-01
  1.762387260605E-01  1.826597598689E-01  1.893147358765E-01  1.962121774698E-01
  2.033609185741E-01  2.107701149672E-01  2.158589486230E-01  2.210706470785E-01
  2.264081767816E-01  2.318745758018E-01  2.374729555600E-01  2.432065025990E-01
  2.490784803978E-01  2.550922312285E-01  2.612511780593E-01  2.675588265023E-01
  2.740187668094E-01  2.806346759152E-01  2.874103195305E-01  2.943495542853E-01
  3.014563299240E-01  3.087346915536E-01  3.161887819465E-01  3.238228438978E-01
  3.316412226409E-01  3.396483683203E-01  3.478488385251E-01  3.562473008824E-01
  3.648485357149E-01  3.736574387612E-01  3.826790239627E-01  3.919184263172E-01
  4.013809048022E-01  4.110718453678E-01  4.209967640023E-01  4.260487251704E-01
  4.311613098724E-01  4.363352455909E-01  4.415712685380E-01  4.468701237604E-01
  4.522325652455E-01  4.576593560285E-01  4.631512683008E-01  4.687090835204E-01
  4.743335925227E-01  4.800255956330E-01  4.857859027806E-01  4.916153336139E-01
  4.975147176173E-01  5.034848942287E-01  5.095267129594E-01  5.156410335150E-01
  5.218287259171E-01  5.280906706281E-01  5.344277586757E-01  5.408408917798E-01
  5.473309824811E-01  5.538989542709E-01  5.605457417222E-01  5.672722906228E-01
  5.740795581103E-01  5.809685128076E-01  5.879401349613E-01  5.949954165809E-01
  6.021353615798E-01  6.093609859188E-01  6.166733177498E-01  6.240733975628E-01
  6.315622783336E-01  6.391410256736E-01  6.468107179816E-01  6.545724465974E-01
  6.624273159566E-01  6.703764437481E-01  6.784209610731E-01  6.865620126059E-01
  6.948007567572E-01  7.031383658383E-01  7.115760262283E-01  7.201149385431E-01
  7.287563178056E-01  7.375013936193E-01  7.463514103427E-01  7.553076272668E-01
  7.643713187940E-01  7.735437746195E-01  7.828262999150E-01  7.922202155140E-01
  8.017268581001E-01  8.113475803973E-01  8.210837513621E-01  8.309367563784E-01
  8.409079974550E-01  8.509988934244E-01  8.612108801455E-01  8.715454107073E-01
  8.820039556358E-01  8.925880031034E-01  9.032990591406E-01  9.141386478503E-01
  9.251083116245E-01  9.362096113640E-01  9.474441267004E-01  9.588134562208E-01
  9.703192176954E-01  9.819630483078E-01  9.937466048875E-01  1.005671564146E+00
  1.017739622916E+00  1.029952498391E+00  1.042311928372E+00  1.054819671512E+00
  1.067477507570E+00  1.080287237661E+00  1.093250684513E+00  1.106369692727E+00
  1.119646129040E+00  1.133081882588E+00  1.146678865179E+00  1.160439011562E+00
  1.174364279700E+00  1.188456651057E+00  1.202718130869E+00  1.217150748440E+00
  1.231756557421E+00  1.246537636110E+00  1.261496087743E+00  1.276634040796E+00
  1.291953649286E+00  1.307457093077E+00  1.323146578194E+00  1.339024337133E+00
  1.355092629178E+00  1.371353740728E+00  1.387809985617E+00  1.404463705444E+00
  1.421317269910E+00  1.438373077149E+00  1.455633554074E+00  1.473101156723E+00
  1.490778370604E+00  1.508667711051E+00  1.526771723584E+00  1.545092984267E+00
  1.563634100078E+00  1.582397709279E+00  1.601386481790E+00  1.620603119572E+00
  1.640050357007E+00  1.659730961291E+00  1.679647732826E+00  1.699803505620E+00
  1.720201147688E+00  1.740843561460E+00  1.761733684197E+00  1.782874488408E+00
  1.804268982269E+00  1.825920210056E+00  1.847831252577E+00  1.870005227608E+00
  1.892445290339E+00  1.915154633823E+00  1.938136489429E+00  1.961394127302E+00
  1.984930856830E+00  2.008750027112E+00  2.032855027437E+00  2.057249287766E+00
  2.081936279219E+00  2.106919514570E+00  2.132202548745E+00  2.157788979330E+00
  2.183682447082E+00  2.209886636447E+00  2.236405276084E+00  2.263242139397E+00
  2.290401045070E+00  2.317885857611E+00  2.345700487902E+00  2.373848893757E+00
  2.402335080482E+00  2.431163101448E+00  2.460337058665E+00  2.489861103369E+00
  2.519739436609E+00  2.549976309849E+00  2.580576025567E+00  2.611542937874E+00
  2.642881453128E+00  2.674596030566E+00  2.706691182933E+00  2.739171477128E+00
  2.772041534853E+00  2.805306033271E+00  2.838969705671E+00  2.873037342139E+00
  2.907513790244E+00  2.942403955727E+00  2.977712803196E+00  3.013445356834E+00
  3.049606701116E+00  3.086201981530E+00  3.123236405308E+00  3.160715242172E+00
  3.198643825078E+00  3.237027550979E+00  3.275871881591E+00  3.315182344170E+00
  3.354964532300E+00  3.395224106687E+00  3.435966795968E+00  3.477198397519E+00
  3.518924778289E+00  3.561151875629E+00  3.603885698137E+00  3.647132326514E+00
  3.690897914432E+00  3.735188689406E+00  3.780010953678E+00  3.825371085123E+00
  3.871275538144E+00  3.917730844602E+00  3.964743614737E+00  4.012320538114E+00
  4.060468384571E+00  4.109194005186E+00  4.158504333248E+00  4.208406385247E+00
  4.258907261870E+00  4.310014149013E+00  4.361734318801E+00  4.414075130626E+00
  4.467044032194E+00  4.520648560580E+00  4.574896343307E+00  4.629795099427E+00
  4.685352640620E+00  4.741576872307E+00  4.798475794775E+00  4.856057504312E+00
  4.914330194364E+00  4.973302156697E+00  5.032981782577E+00  5.093377563968E+00
  5.154498094735E+00  5.216352071872E+00  5.278948296735E+00  5.342295676296E+00
  5.406403224411E+00  5.471280063104E+00  5.536935423861E+00  5.603378648948E+00
  5.670619192735E+00  5.738666623048E+00  5.807530622524E+00  5.877220989995E+00
  5.947747641875E+00  6.019120613577E+00  6.091350060940E+00  6.164446261671E+00
  6.238419616811E+00  6.313280652213E+00  6.389040020040E+00  6.465708500280E+00
  6.543297002283E+00  6.621816566311E+00  6.701278365107E+00  6.781693705488E+00
  6.863074029954E+00  6.945430918313E+00  7.028776089333E+00  7.113121402405E+00
  7.198478859234E+00  7.284860605545E+00  7.372278932811E+00  7.460746280005E+00
  7.550275235365E+00  7.640878538189E+00  7.732569080648E+00  7.825359909615E+00
  7.919264228531E+00  8.014295399273E+00  8.110466944064E+00  8.207792547393E+00
  8.306286057962E+00  8.405961490657E+00  8.506833028545E+00  8.608915024888E+00
  8.712222005187E+00  8.816768669249E+00  8.922569893280E+00  9.029640731999E+00
  9.137996420783E+00  9.247652377832E+00  9.358624206366E+00  9.470927696843E+00
  9.584578829205E+00  9.699593775155E+00  9.815988900457E+00  9.933780767263E+00
  1.005298613647E+01  1.017362197011E+01  1.029570543375E+01  1.041925389895E+01
  1.054428494574E+01  1.067081636509E+01  1.079886616147E+01  1.092845255541E+01
  1.105959398607E+01  1.119230911391E+01  1.132661682327E+01  1.146253622515E+01
  1.160008665985E+01  1.173928769977E+01  1.188015915217E+01  1.202272106200E+01
  1.216699371474E+01  1.231299763932E+01  1.246075361099E+01  1.261028265432E+01
  1.276160604617E+01  1.291474531873E+01  1.306972226255E+01  1.322655892970E+01
  1.338527763686E+01  1.354590096850E+01  1.370845178012E+01  1.387295320148E+01
  1.403942863990E+01  1.420790178358E+01  1.437839660498E+01  1.455093736424E+01
  1.472554861261E+01  1.490225519597E+01  1.508108225832E+01  1.526205524542E+01
  1.544519990836E+01  1.563054230726E+01  1.581810881495E+01  1.600792612073E+01
  1.620002123418E+01  1.639442148899E+01  1.659115454686E+01  1.679024840142E+01
  1.699173138224E+01  1.719563215882E+01  1.740197974473E+01  1.761080350166E+01
  1.782213314368E+01  1.803599874141E+01  1.825243072631E+01  1.847145989502E+01
  1.869311741376E+01  1.891743482273E+01  1.914444404060E+01  1.937417736909E+01
  1.960666749752E+01  1.984194750749E+01  2.008005087758E+01  2.032101148811E+01
  2.056486362596E+01  2.081164198948E+01  2.106138169335E+01  2.131411827367E+01
  2.156988769295E+01  2.182872634527E+01  2.209067106141E+01  2.235575911415E+01
  2.262402822352E+01  2.289551656220E+01  2.317026276095E+01  2.344830591408E+01
  2.372968558505E+01  2.401444181207E+01  2.430261511381E+01  2.459424649518E+01
  2.488937745312E+01  2.518804998256E+01  2.549030658235E+01  2.579619026134E+01
  2.610574454447E+01  2.641901347901E+01  2.673604164076E+01  2.705687414044E+01
  2.738155663013E+01  2.771013530969E+01  2.804265693341E+01  2.837916881661E+01
  2.871971884241E+01  2.906435546852E+01  2.941312773414E+01  2.976608526695E+01
  3.012327829015E+01  3.048475762963E+01  3.085057472119E+01  3.122078161784E+01
  3.159543099726E+01  3.197457616923E+01  3.235827108326E+01  3.274657033625E+01
  3.313952918029E+01  3.353720353045E+01  3.393964997282E+01  3.434692577249E+01
  3.475908888176E+01  3.517619794834E+01  3.559831232372E+01  3.602549207161E+01
  3.645779797647E+01  3.689529155219E+01  3.733803505081E+01  3.778609147142E+01
  3.823952456908E+01  3.869839886391E+01  3.916277965027E+01  3.963273300608E+01
  4.010832580215E+01  4.058962571178E+01  4.107670122032E+01  4.156962163496E+01
  4.206845709458E+01  4.257327857972E+01  4.308415792267E+01  4.360116781774E+01
  4.412438183156E+01
</grid-data>
</grid>
<valence-charge total-charge="6" is-unscreening-charge="yes"
 rescaled-to-z-pseudo="no">
<radfunc>
<data npts="457">
  3.695491493198E+00  3.697659064714E+00  3.704136685010E+00  3.714937041097E+00
  3.729939661462E+00  3.749642496740E+00  3.774713983711E+00  3.803368636655E+00
  3.838875446543E+00  3.877163087347E+00  3.920193382414E+00  3.966812481307E+00
  4.022943321090E+00  4.081319821078E+00  4.139385295653E+00  4.205957698824E+00
  4.282206996488E+00  4.354077734118E+00  4.434403404389E+00  4.524085278174E+00
  4.624095294834E+00  4.712236762632E+00  4.808215925181E+00  4.912619495081E+00
  5.026054387164E+00  5.149142621309E+00  5.282514524257E+00  5.389671297422E+00
  5.503229110409E+00  5.623443057650E+00  5.750557566418E+00  5.884801994550E+00
  6.026385549347E+00  6.175491464857E+00  6.332270376038E+00  6.496832831904E+00
  6.669240896234E+00  6.849498794602E+00  6.974003307994E+00  7.101931769780E+00
  7.233228818211E+00  7.367820128915E+00  7.505610656126E+00  7.646482801640E+00
  7.790294519604E+00  7.936877367543E+00  8.086034516649E+00  8.237538737282E+00
  8.391130378845E+00  8.546515366753E+00  8.703363243031E+00  8.861305281246E+00
  9.019932710818E+00  9.178795090409E+00  9.337398874805E+00  9.495206224561E+00
  9.651634112477E+00  9.806053785614E+00  9.957790645912E+00  1.010612461626E+01
  1.025029106208E+01  1.038948234047E+01  1.052285005011E+01  1.064950805420E+01
  1.076853634636E+01  1.087898582448E+01  1.097988403027E+01  1.102644276669E+01
  1.107024190153E+01  1.111115648710E+01  1.114906157095E+01  1.118383249771E+01
  1.121534522741E+01  1.124347666990E+01  1.126810503501E+01  1.128911019804E+01
  1.130637407965E+01  1.131978103973E+01  1.132921828406E+01  1.133457628274E+01
  1.133574919928E+01  1.133263532884E+01  1.132513754407E+01  1.131316374697E+01
  1.129662732477E+01  1.127544760779E+01  1.124955032715E+01  1.121886806999E+01
  1.118334072952E+01  1.114291594743E+01  1.109754954581E+01  1.104720594559E+01
  1.099185856858E+01  1.093149021994E+01  1.086609344794E+01  1.079567087775E+01
  1.072023551601E+01  1.063981102294E+01  1.055443194881E+01  1.046414393157E+01
  1.036900385264E+01  1.026907994793E+01  1.016445187136E+01  1.005521070835E+01
  9.941458937056E+00  9.823310335254E+00  9.700889831361E+00  9.574333298185E+00
  9.443787288561E+00  9.309408712407E+00  9.171364455196E+00  9.029830938341E+00
  8.884993622485E+00  8.737046455240E+00  8.586191265422E+00  8.432637106402E+00
  8.276599551711E+00  8.118299946568E+00  7.957964619517E+00  7.795824058818E+00
  7.632112058711E+00  7.467064841049E+00  7.300920158157E+00  7.133916383071E+00
  6.966291593525E+00  6.798282656215E+00  6.630124317949E+00  6.462048310289E+00
  6.294282474200E+00  6.127049911071E+00  5.960568166214E+00  5.795048450626E+00
  5.630694906395E+00  5.467703920691E+00  5.306263492725E+00  5.146552657527E+00
  4.988740969762E+00  4.832988050204E+00  4.679443196821E+00  4.528245061837E+00
  4.379521395481E+00  4.233388856606E+00  4.089952889788E+00  3.949307668076E+00
  3.811536100137E+00  3.676709900209E+00  3.544889719000E+00  3.416125333497E+00
  3.290455893484E+00  3.167910222502E+00  3.048507170946E+00  2.932256018932E+00
  2.819156926570E+00  2.709201429153E+00  2.602372974703E+00  2.498647501035E+00
  2.397994049192E+00  2.300375409670E+00  2.205748797205E+00  2.114066549140E+00
  2.025276841453E+00  1.939324415476E+00  1.856151307247E+00  1.775697570198E+00
  1.697901980811E+00  1.622702880790E+00  1.550039648202E+00  1.479854427440E+00
  1.412092684134E+00  1.346703188271E+00  1.283638198420E+00  1.222853060604E+00
  1.164304352034E+00  1.107947230571E+00  1.053735606775E+00  1.001622270222E+00
  9.515590389310E-01  9.034969042175E-01  8.573861707282E-01  8.131765914629E-01
  7.708174976064E-01  7.302579230261E-01  6.914467233196E-01  6.543326893204E-01
  6.188646549992E-01  5.849915997190E-01  5.526627448277E-01  5.218276445935E-01
  4.924362715074E-01  4.644390959972E-01  4.377871606156E-01  4.124321487803E-01
  3.883264481581E-01  3.654232088015E-01  3.436763961543E-01  3.230408390566E-01
  3.034722728877E-01  2.849273779941E-01  2.673638135568E-01  2.507402470569E-01
  2.350163795066E-01  2.201529666123E-01  2.061118360437E-01  1.928559009822E-01
  1.803491701240E-01  1.685567543166E-01  1.574448700032E-01  1.469808396526E-01
  1.371330893509E-01  1.278711437286E-01  1.191656183962E-01  1.109882100594E-01
  1.033116844819E-01  9.610986246144E-02  8.935760398305E-02  8.303079070685E-02
  7.710630694826E-02  7.156201930169E-02  6.637675505612E-02  6.153027954581E-02
  5.700327257584E-02  5.277730405611E-02  4.883480897328E-02  4.515906182429E-02
  4.173415063005E-02  3.854495064165E-02  3.557709784622E-02  3.281696237295E-02
  3.025162189422E-02  2.786883511025E-02  2.565701539961E-02  2.360520471169E-02
  2.170304777089E-02  1.994076665626E-02  1.830913581409E-02  1.679945755501E-02
  1.540353808137E-02  1.411366408484E-02  1.292257994873E-02  1.182346558444E-02
  1.080991492600E-02  9.875915102192E-03  9.015826301106E-03  8.224362337576E-03
  7.496571930122E-03  6.827820690215E-03  6.213773823265E-03  5.650379537626E-03
  5.133853155044E-03  4.660661913414E-03  4.227510450450E-03  3.831326954838E-03
  3.469249969726E-03  3.138615831917E-03  2.836946728867E-03  2.561939354634E-03
  2.311454145072E-03  2.083505072042E-03  1.876249975989E-03  1.687981416001E-03
  1.517118016447E-03  1.362196289323E-03  1.221862911675E-03  1.094867437745E-03
  9.800554259180E-04  8.763619610105E-04  7.828055529755E-04  6.984823937027E-04
  6.225609542060E-04  5.542769051411E-04  4.929283442577E-04  4.378713150600E-04
  3.885156016135E-04  3.443207850918E-04  3.047925483013E-04  2.694792150470E-04
  2.379685118055E-04  2.098845397534E-04  1.848849457553E-04  1.626582814491E-04
  1.429215400710E-04  1.254178611469E-04  1.099143936341E-04  9.620030853384E-05
  8.408495240904E-05  7.339613363696E-05  6.397853360074E-05  5.569223538361E-05
  4.841136287182E-05  4.202282350047E-05  3.642514819198E-05  3.152742233946E-05
  2.724830197921E-05  2.351510957856E-05  2.026300413672E-05  1.743422056018E-05
  1.497737352858E-05  1.284682131428E-05  1.100208525771E-05  9.407320832676E-06
  8.030836460257E-06  6.844656447070E-06  5.824124634234E-06  4.947545546181E-06
  4.195860024574E-06  3.552352521357E-06  3.002387406633E-06  2.533171821426E-06
  2.133542772612E-06  1.793776327126E-06  1.505416915256E-06  1.261124898131E-06
  1.054540692743E-06  8.801638787716E-07  7.332458354548E-07  6.096945736646E-07
  5.059905384596E-07  4.191122607865E-07  3.464708338742E-07  2.858522803890E-07
  2.353669608110E-07  1.934052519521E-07  1.585987973135E-07  1.297866983000E-07
  1.059860774284E-07  8.636650184393E-08  7.022780793694E-08  5.698091590859E-08
  4.613126701812E-08  3.726455621343E-08  3.003446915916E-08  2.415216557639E-08
  1.937728053891E-08  1.551024216702E-08  1.238572824598E-08  9.867105888725E-09
  7.841717668152E-09  6.216894858335E-09  4.916593731379E-09  3.878564432101E-09
  3.051973958633E-09  2.395415366125E-09  1.875244624164E-09  1.464194727226E-09
  1.140223802194E-09  8.855601883459E-10  6.859128846822E-10  5.298204593295E-10
  4.081155798733E-10  3.134858276385E-10  2.401144715309E-10  1.833874593891E-10
  1.396550917913E-10  1.060387238259E-10  8.027443793478E-11  6.058698402643E-11
  4.558842554724E-11  3.419689188901E-11  2.557164449332E-11  1.906133902196E-11
  1.416288913285E-11  1.048909685647E-11  7.742689272574E-12  5.696280899903E-12
  0.000000000000E+00  0.000000000000E+00  0.000000000000E+00  0.000000000000E+00
  0.000000000000E+00  0.000000000000E+00  0.000000000000E+00  0.000000000000E+00
  0.000000000000E+00  0.000000000000E+00  0.000000000000E+00  0.000000000000E+00
  0.000000000000E+00  0.000000000000E+00  0.000000000000E+00  0.000000000000E+00
  0.000000000000E+00  0.000000000000E+00  0.000000000000E+00  0.000000000000E+00
  0.000000000000E+00  0.000000000000E+00  0.000000000000E+00  0.000000000000E+00
  0.000000000000E+00  0.000000000000E+00  0.000000000000E+00  0.000000000000E+00
  0.000000000000E+00  0.000000000000E+00  0.000000000000E+00  0.000000000000E+00
  0.000000000000E+00  0.000000000000E+00  0.000000000000E+00  0.000000000000E+00
  0.000000000000E+00  0.000000000000E+00  0.000000000000E+00  0.000000000000E+00
  0.000000000000E+00  0.000000000000E+00  0.000000000000E+00  0.000000000000E+00
  0.000000000000E+00  0.000000000000E+00  0.000000000000E+00  0.000000000000E+00
  0.000000000000E+00  0.000000000000E+00  0.000000000000E+00  0.000000000000E+00
  0.000000000000E+00  0.000000000000E+00  0.000000000000E+00  0.000000000000E+00
  0.000000000000E+00  0.000000000000E+00  0.000000000000E+00  0.000000000000E+00
  0.000000000000E+00  0.000000000000E+00  0.000000000000E+00  0.000000000000E+00
  0.000000000000E+00  0.000000000000E+00  0.000000000000E+00  0.000000000000E+00
  0.000000000000E+00  0.000000000000E+00  0.000000000000E+00  0.000000000000E+00
  0.000000000000E+00  0.000000000000E+00  0.000000000000E+00  0.000000000000E+00
  0.000000000000E+00  0.000000000000E+00  0.000000000000E+00  0.000000000000E+00
  0.000000000000E+00  0.000000000000E+00  0.000000000000E+00  0.000000000000E+00
  0.000000000000E+00  0.000000000000E+00  0.000000000000E+00  0.000000000000E+00
  0.000000000000E+00  0.000000000000E+00  0.000000000000E+00  0.000000000000E+00
  0.000000000000E+00
</data>
</radfunc>
</valence-charge>
<pseudocore-charge matching-radius="0.382679023963"
 number-of-continuous-derivatives="4">
<annotation model-charge-form="Teter function with specified parameters" />
<radfunc>
<data npts="290">
  4.302626794778E+01  4.301579511527E+01  4.298449879856E+01  4.293232080827E+01
  4.285984822450E+01  4.276468304972E+01  4.264360772658E+01  4.250525669544E+01
  4.233386341059E+01  4.214909813978E+01  4.194150931301E+01  4.171668221680E+01
  4.144608627866E+01  4.116478278405E+01  4.088509677681E+01  4.056457954112E+01
  4.019765981712E+01  3.985199142278E+01  3.946586375241E+01  3.903501305655E+01
  3.855485255233E+01  3.813193923898E+01  3.767169605086E+01  3.717137548745E+01
  3.662814270166E+01  3.603909985025E+01  3.540131790587E+01  3.488923832594E+01
  3.434688711191E+01  3.377308488471E+01  3.316670175988E+01  3.252667623320E+01
  3.185203659826E+01  3.114192502644E+01  3.039562440289E+01  2.961258796004E+01
  2.879247168164E+01  2.793516936135E+01  2.734304655906E+01  2.673459146515E+01
  2.610999779697E+01  2.546953231714E+01  2.481354037187E+01  2.414245142030E+01
  2.345678448771E+01  2.275715346447E+01  2.204427216177E+01  2.131895902353E+01
  2.058214138188E+01  1.983485913186E+01  1.907826768928E+01  1.831364008472E+01
  1.754236803658E+01  1.676596183798E+01  1.598604888582E+01  1.520437067748E+01
  1.442277810034E+01  1.364322484485E+01  1.286775878143E+01  1.209851115827E+01
  1.133768350055E+01  1.058753212340E+01  9.850350211344E+00  9.128447467126E+00
  8.424127392721E+00  7.739662335229E+00  7.077266509981E+00  6.755013572927E+00
  6.439067301567E+00  6.129675124186E+00  5.827075239196E+00  5.531495640395E+00
  5.243153143639E+00  4.962252420638E+00  4.688985045910E+00  4.423528563312E+00
  4.166045578888E+00  3.916682887053E+00  3.675570637403E+00  3.442821549638E+00
  3.218530184223E+00  3.002772276536E+00  2.795604142223E+00  2.597062161472E+00
  2.407162349726E+00  2.225900022175E+00  2.053249558981E+00  1.889164277809E+00
  1.733576419644E+00  1.586397253278E+00  1.447517303026E+00  1.316806703387E+00
  1.194115683365E+00  1.079275182051E+00  9.720975958175E-01  8.723776562801E-01
  7.798934366229E-01  6.944074825279E-01  6.156680623539E-01  5.434105296380E-01
  4.773587893879E-01  4.172268580223E-01  3.627205052419E-01  3.135389645816E-01
  2.693766979584E-01  2.299251982026E-01  1.948748123847E-01  1.639165677590E-01
  1.367439813685E-01  1.130548338260E-01  9.255288753648E-02  7.494952967863E-02
  5.996532064413E-02  4.733142936045E-02  3.679093800529E-02  2.810000006604E-02
  2.102883749983E-02  1.536256489789E-02  1.090183102897E-02  7.463270898164E-03
  4.879764467863E-03  3.000501392971E-03  1.690854461012E-03  8.320678278520E-04
  3.207695222053E-04  6.832097213502E-05  1.939535966063E-08  5.417170228857E-05
  1.810609976507E-04  3.418287494609E-04  5.072971470764E-04  6.567570289785E-04
  7.767469763829E-04  8.598487097435E-04  9.035227815621E-04  9.090067438139E-04
  8.802955196660E-04  8.232206902755E-04  7.446419064065E-04  6.517597626659E-04
  5.515553607490E-04  4.503575845743E-04  3.535349724019E-04  2.653051607090E-04
  1.886513500310E-04  1.253322510368E-04  7.596963721507E-05  4.019605891341E-05
  1.684452816509E-05  4.162091145665E-06  3.014820351929E-08  2.176098404109E-06
  8.363271111703E-06  1.654901665147E-05  2.500408460547E-05  3.238982232627E-05
  3.779306784390E-05  4.072168371093E-05  4.106629225504E-05  3.903577059884E-05
  3.507533228788E-05  2.977650218992E-05  2.378798352808E-05  1.773538332038E-05
  1.215612607596E-05  7.453815420276E-06  3.874004652107E-06  1.501032570194E-06
  2.734894460298E-07  1.419444121764E-08  4.694404657698E-07  1.351785494187E-06
  2.380860093742E-06  3.317465179700E-06  3.987529332571E-06  4.294104213322E-06
  4.217288505779E-06  3.803565963563E-06  3.147321668674E-06  2.368108510264E-06
  1.587486089582E-06  9.089391312975E-07  4.035754634483E-07  1.031489145607E-07
  6.436737581291E-10  0.000000000000E+00  0.000000000000E+00  0.000000000000E+00
  0.000000000000E+00  0.000000000000E+00  0.000000000000E+00  0.000000000000E+00
  0.000000000000E+00  0.000000000000E+00  0.000000000000E+00  0.000000000000E+00
  0.000000000000E+00  0.000000000000E+00  0.000000000000E+00  0.000000000000E+00
  0.000000000000E+00  0.000000000000E+00  0.000000000000E+00  0.000000000000E+00
  0.000000000000E+00  0.000000000000E+00  0.000000000000E+00  0.000000000000E+00
  0.000000000000E+00  0.000000000000E+00  0.000000000000E+00  0.000000000000E+00
  0.000000000000E+00  0.000000000000E+00  0.000000000000E+00  0.000000000000E+00
  0.000000000000E+00  0.000000000000E+00  0.000000000000E+00  0.000000000000E+00
  0.000000000000E+00  0.000000000000E+00  0.000000000000E+00  0.000000000000E+00
  0.000000000000E+00  0.000000000000E+00  0.000000000000E+00  0.000000000000E+00
  0.000000000000E+00  0.000000000000E+00  0.000000000000E+00  0.000000000000E+00
  0.000000000000E+00  0.000000000000E+00  0.000000000000E+00  0.000000000000E+00
  0.000000000000E+00  0.000000000000E+00  0.000000000000E+00  0.000000000000E+00
  0.000000000000E+00  0.000000000000E+00  0.000000000000E+00  0.000000000000E+00
  0.000000000000E+00  0.000000000000E+00  0.000000000000E+00  0.000000000000E+00
  0.000000000000E+00  0.000000000000E+00  0.000000000000E+00  0.000000000000E+00
  0.000000000000E+00  0.000000000000E+00  0.000000000000E+00  0.000000000000E+00
  0.000000000000E+00  0.000000000000E+00  0.000000000000E+00  0.000000000000E+00
  0.000000000000E+00  0.000000000000E+00  0.000000000000E+00  0.000000000000E+00
  0.000000000000E+00  0.000000000000E+00  0.000000000000E+00  0.000000000000E+00
  0.000000000000E+00  0.000000000000E+00  0.000000000000E+00  0.000000000000E+00
  0.000000000000E+00  0.000000000000E+00  0.000000000000E+00  0.000000000000E+00
  0.000000000000E+00  0.000000000000E+00  0.000000000000E+00  0.000000000000E+00
  0.000000000000E+00  0.000000000000E+00  0.000000000000E+00  0.000000000000E+00
  0.000000000000E+00  0.000000000000E+00  0.000000000000E+00  0.000000000000E+00
  0.000000000000E+00  0.000000000000E+00
</data>
</radfunc>
</pseudocore-charge>
<semilocal-potentials set="scalar_relativistic">
<slps n="2" l="s" rc="1.35509262918" eref="-0.880571743193">
<radfunc>
<data npts="290">
 -4.814859643799E+00 -4.815153559875E+00 -4.816033307990E+00 -4.817505108900E+00
 -4.819559841596E+00 -4.822276329504E+00 -4.825762316343E+00 -4.829786243704E+00
 -4.834830390258E+00 -4.840340371824E+00 -4.846618999158E+00 -4.853522211578E+00
 -4.861970259551E+00 -4.870910765131E+00 -4.879956188161E+00 -4.890509473260E+00
 -4.902830303025E+00 -4.914665811318E+00 -4.928141854898E+00 -4.943488531516E+00
 -4.960966063605E+00 -4.976678073163E+00 -4.994106935558E+00 -5.013434064270E+00
 -5.034856612666E+00 -5.058587816012E+00 -5.084857057861E+00 -5.106371529659E+00
 -5.129560392715E+00 -5.154537277446E+00 -5.181419952945E+00 -5.210329815060E+00
 -5.241391232199E+00 -5.274730729617E+00 -5.310475990981E+00 -5.348754653820E+00
 -5.389692872878E+00 -5.433413623113E+00 -5.464165096872E+00 -5.496238926662E+00
 -5.529666461791E+00 -5.564476859789E+00 -5.600696673233E+00 -5.638349398319E+00
 -5.677454982932E+00 -5.718029292066E+00 -5.760083528519E+00 -5.803623606782E+00
 -5.848649478339E+00 -5.895154406549E+00 -5.943124189459E+00 -5.992536329114E+00
 -6.043359145470E+00 -6.095550833679E+00 -6.149058462759E+00 -6.203816914083E+00
 -6.259747758093E+00 -6.316758068578E+00 -6.374739175844E+00 -6.433565363956E+00
 -6.493092524821E+00 -6.553156793750E+00 -6.613573210375E+00 -6.674134476129E+00
 -6.734609916901E+00 -6.794744806097E+00 -6.854260255367E+00 -6.883692085147E+00
 -6.912853929670E+00 -6.941704632426E+00 -6.970201874096E+00 -6.998302309480E+00
 -7.025961730658E+00 -7.053135256312E+00 -7.079777546043E+00 -7.105843037393E+00
 -7.131286201584E+00 -7.156061812643E+00 -7.180125222784E+00 -7.203432635633E+00
 -7.225941367505E+00 -7.247610086147E+00 -7.268399016145E+00 -7.288270100601E+00
 -7.307187109899E+00 -7.325115690608E+00 -7.342023350388E+00 -7.357879378429E+00
 -7.372654704983E+00 -7.386321707791E+00 -7.398853977113E+00 -7.410226054386E+00
 -7.420413162272E+00 -7.429390943504E+00 -7.437135229192E+00 -7.443621849460E+00
 -7.448826503351E+00 -7.452724694910E+00 -7.455291740938E+00 -7.456502849617E+00
 -7.456333264477E+00 -7.454758463801E+00 -7.451754401846E+00 -7.447297775680E+00
 -7.441366299847E+00 -7.433938970697E+00 -7.424996302949E+00 -7.414520522773E+00
 -7.402495704360E+00 -7.388907840315E+00 -7.373744840190E+00 -7.356996455709E+00
 -7.338654135597E+00 -7.318710817074E+00 -7.297160664723E+00 -7.273998770465E+00
 -7.249220830422E+00 -7.222822815595E+00 -7.194800653324E+00 -7.165149935611E+00
 -7.133865668726E+00 -7.100942076151E+00 -7.066372464280E+00 -7.030149157481E+00
 -6.992263506446E+00 -6.952705971386E+00 -6.911466279686E+00 -6.868533656241E+00
 -6.823897123806E+00 -6.777545870375E+00 -6.729469680662E+00 -6.679659429261E+00
 -6.628107633728E+00 -6.574809066666E+00 -6.519761426777E+00 -6.462966069578E+00
 -6.404428799062E+00 -6.344160721901E+00 -6.282179165737E+00 -6.218508662631E+00
 -6.153181997787E+00 -6.086241322230E+00 -6.017739326023E+00 -5.947740465959E+00
 -5.876322238391E+00 -5.803576483847E+00 -5.729610705479E+00 -5.654549378030E+00
 -5.578535218107E+00 -5.501730379966E+00 -5.424317534075E+00 -5.346500778481E+00
 -5.268506325787E+00 -5.190582901737E+00 -5.113001785457E+00 -5.036056417030E+00
 -4.960061495911E+00 -4.885351494087E+00 -4.812278511837E+00 -4.741209413402E+00